# vtk DataFile Version 3.0
File Name: Molecule/arg/arg_0.5-0.vtk
ASCII
DATASET UNSTRUCTURED_GRID
FIELD FieldData 1
TIME 1 1 double
0.0
POINTS 143 double
-3.403 0.327 1.604
-2.971 0.024 0.066
-2.981 -0.361 1.858
-2.549 -0.664 0.32
-2.984 0.046 0.042
-2.2 -0.483 -0.862
-2.216 -0.458 -0.889
-2.776 1.74 -0.497
-2.39 -0.269 -1.153
-2.211 1.177 -1.613
-2.622 1.932 -0.429
-1.982 1.439 -1.492
-1.81 1.654 -1.416
-2.495 2.657 0.67
-1.615 2.438 -0.879
-1.488 3.163 0.22
-3.186 2.284 1.521
-1.863 3.333 1.507
-2.53 2.972 2.328
-3.419 1.801 1.788
-2.717 2.558 2.345
-2.979 2.017 2.644
-3.408 0.559 1.798
-3.107 1.793 3.017
-3.095 0.593 3.027
-3.105 0.348 2.085
-3.1 0.088 1.867
-2.97 0.105 2.152
-2.978 0.383 3.085
-2.865 -0.346 2.113
-2.52 -0.7 2.425
-2.645 0.041 3.387
-1.592 -1.721 1.268
-2.003 -1.142 3.367
-0.984 -2.263 2.097
-2.487 -0.785 0.321
-0.96 -2.23 0.303
-1.943 -1.202 -0.738
-2.131 -0.618 -0.861
-2.114 -0.682 -1.181
-1.927 -1.264 -1.052
-2.312 -0.441 -1.376
-2.121 -0.506 -1.916
-1.682 -1.348 -1.746
-1.897 0.192 -2.527
-1.864 -0.768 -1.888
-1.57 0.147 -2.691
-2.011 1.039 -2.18
-1.198 0.386 -3.152
-1.348 1.496 -2.696
-1.72 1.257 -2.235
-1.479 1.817 -1.75
-1.107 2.057 -2.211
-1.319 2.584 -1.178
-0.816 3.013 -1.267
-0.543 2.537 -2.312
0.466 3.148 -0.891
-0.048 3.337 -3.001
0.699 3.415 -2.782
1.057 2.557 -0.305
0.892 2.689 -1.891
1.553 2.026 -1.234
0.737 2.845 0.68
1.539 1.918 0.039
1.22 2.206 1.024
0.406 3.093 0.833
1.112 2.426 2.108
0.748 2.699 2.276
-0.034 3.266 2.099
-0.687 3.194 3.654
0.006 2.617 4.044
-1.995 3.111 3.523
-0.58 2.815 3.881
-2.096 2.719 3.73
-1.061 1.806 4.483
-0.466 1.628 4.634
-2.128 2.66 3.763
-1.452 1.611 4.604
-2.373 2.347 3.982
-1.464 1.095 4.666
-0.48 1.041 4.705
-1.655 0.731 4.634
-0.333 0.517 4.869
-0.555 0.096 4.831
-0.878 -0.357 4.785
0.164 -1.171 5.088
0.507 -0.734 5.141
0.93 -2.454 3.923
1.043 -0.806 5.264
1.809 -2.089 4.099
1.037 -1.846 2.131
1.916 -1.481 2.307
1.061 -1.813 0.337
1.48 -1.078 0.031
2.335 -0.746 2.002
1.639 -0.712 -0.547
1.697 -0.118 0.66
1.842 0.216 0.134
1.085 -2.024 -1.812
2.201 -0.141 -1.444
1.67 -1.4 -2.657
-0.548 -1.409 -2.576
0.104 -0.811 -3.39
-0.822 -1.287 -2.506
-0.336 -0.591 -3.197
-0.616 -0.466 -3.125
-0.988 -0.705 -2.664
0.101 0.716 -4.098
0.516 0.418 -4.238
-0.398 1.946 -3.588
0.377 1.347 -4.4
0.117 1.987 -4.134
0.028 3.029 -3.665
0.9 3.106 -3.671
0.989 2.064 -4.14
0.819 3.383 -2.845
1.749 2.404 -3.353
1.668 2.681 -2.526
1.123 2.627 -2.01
2.133 1.624 -1.992
2.194 2.159 -2.516
2.042 0.907 -1.262
2.428 1.273 -2.257
2.342 0.599 -1.57
1.976 0.918 0.014
1.83 1.363 -3.817
1.863 2.209 -3.379
1.103 1.869 -4.167
1.884 1.434 1.198
2.541 0.959 2.592
1.842 1.579 2.299
0.651 1.408 4.781
1.35 0.788 5.074
0.82 0.891 4.947
-3.94 1.181 0.843
-1.891 3.826 2.497
-2.589 1.578 4.495
-1.092 -1.939 4.665
0.786 -2.653 -0.834
3.668 -0.309 3.703
2.756 0.481 5.071
2.756 -1.099 5.071
2.093 -0.513 -4.015

CELLS 282 1128
3 0 1 2
3 2 1 3
3 1 4 5
3 5 4 6
3 4 7 8
3 8 7 9
3 7 10 11
3 11 10 12
3 10 13 14
3 14 13 15
3 13 16 17
3 17 16 18
3 16 19 20
3 20 19 21
3 19 22 23
3 23 22 24
3 22 0 25
3 25 0 26
3 25 27 24
3 24 27 28
3 27 26 29
3 29 26 2
3 29 30 28
3 28 30 31
3 30 32 33
3 33 32 34
3 32 35 36
3 36 35 37
3 35 3 38
3 38 3 5
3 38 39 37
3 37 39 40
3 39 6 41
3 41 6 8
3 41 42 40
3 40 42 43
3 42 44 45
3 45 44 46
3 44 47 48
3 48 47 49
3 47 9 50
3 50 9 11
3 50 51 49
3 49 51 52
3 51 12 53
3 53 12 14
3 53 54 52
3 52 54 55
3 54 56 57
3 57 56 58
3 56 59 60
3 60 59 61
3 59 62 63
3 63 62 64
3 62 65 66
3 66 65 67
3 65 15 68
3 68 15 17
3 68 69 67
3 67 69 70
3 69 71 72
3 72 71 73
3 71 18 73
3 73 18 20
3 72 74 70
3 70 74 75
3 74 76 77
3 77 76 78
3 76 21 78
3 78 21 23
3 77 79 75
3 75 79 80
3 79 81 82
3 82 81 83
3 81 31 84
3 84 31 33
3 84 85 83
3 83 85 86
3 85 87 88
3 88 87 89
3 87 90 89
3 89 90 91
3 90 34 92
3 92 34 36
3 92 93 91
3 91 93 94
3 93 95 96
3 96 95 97
3 95 98 99
3 99 98 100
3 98 101 100
3 100 101 102
3 101 103 104
3 104 103 105
3 103 43 106
3 106 43 45
3 106 46 105
3 105 46 48
3 104 107 102
3 102 107 108
3 107 109 110
3 110 109 111
3 109 55 112
3 112 55 57
3 112 113 111
3 111 113 114
3 113 115 116
3 116 115 117
3 115 58 118
3 118 58 60
3 118 119 117
3 117 119 120
3 119 121 122
3 122 121 123
3 121 61 124
3 124 61 63
3 124 97 123
3 123 97 99
3 122 125 120
3 120 125 126
3 125 108 127
3 127 108 110
3 127 114 126
3 126 114 116
3 96 128 94
3 94 128 129
3 128 64 130
3 130 64 66
3 130 131 129
3 129 131 132
3 131 80 133
3 133 80 82
3 133 86 132
3 132 86 88
3 26 0 2
3 5 3 1
3 8 6 4
3 11 9 7
3 14 12 10
3 17 15 13
3 20 18 16
3 23 21 19
3 25 24 22
3 29 28 27
3 33 31 30
3 36 34 32
3 38 37 35
3 41 40 39
3 45 43 42
3 48 46 44
3 50 49 47
3 53 52 51
3 57 55 54
3 60 58 56
3 63 61 59
3 66 64 62
3 68 67 65
3 72 70 69
3 77 75 74
3 82 80 79
3 84 83 81
3 88 86 85
3 92 91 90
3 96 94 93
3 99 97 95
3 104 102 101
3 106 105 103
3 110 108 107
3 112 111 109
3 116 114 113
3 118 117 115
3 122 120 119
3 124 123 121
3 127 126 125
3 130 129 128
3 133 132 131
3 0 22 134
3 0 134 4
3 0 4 1
3 4 134 7
3 7 134 13
3 7 13 10
3 13 134 16
3 16 134 19
3 19 134 22
3 3 35 2
3 2 35 32
3 2 32 30
3 2 30 29
3 6 39 38
3 6 38 5
3 9 47 42
3 9 42 8
3 8 42 41
3 42 47 44
3 12 51 11
3 11 51 50
3 15 65 56
3 15 56 54
3 15 54 53
3 15 53 14
3 56 65 62
3 56 62 59
3 71 69 135
3 71 135 18
3 18 135 17
3 17 135 68
3 68 135 69
3 76 74 73
3 76 73 20
3 76 20 21
3 73 74 72
3 24 28 136
3 24 136 23
3 23 136 78
3 78 136 77
3 77 136 79
3 79 136 81
3 81 136 31
3 31 136 28
3 26 27 25
3 34 90 87
3 34 87 137
3 34 137 33
3 33 137 84
3 84 137 85
3 85 137 87
3 37 40 36
3 36 40 43
3 36 43 138
3 36 138 92
3 92 138 93
3 93 138 98
3 93 98 95
3 98 138 101
3 101 138 43
3 101 43 103
3 46 106 45
3 49 52 109
3 49 109 48
3 48 109 107
3 48 107 105
3 105 107 104
3 109 52 55
3 58 115 113
3 58 113 57
3 57 113 112
3 61 121 119
3 61 119 118
3 61 118 60
3 64 128 63
3 63 128 124
3 124 128 97
3 97 128 96
3 67 70 66
3 66 70 130
3 130 70 131
3 131 70 75
3 131 75 80
3 83 86 82
3 82 86 133
3 139 140 141
3 139 141 89
3 139 89 91
3 139 91 94
3 139 94 129
3 139 129 140
3 140 129 132
3 140 132 88
3 140 88 141
3 141 88 89
3 102 108 142
3 102 142 100
3 100 142 99
3 99 142 123
3 123 142 122
3 122 142 125
3 125 142 108
3 111 114 110
3 110 114 127
3 117 120 116
3 116 120 126

CELL_TYPES 282
5
5
5
5
5
5
5
5
5
5
5
5
5
5
5
5
5
5
5
5
5
5
5
5
5
5
5
5
5
5
5
5
5
5
5
5
5
5
5
5
5
5
5
5
5
5
5
5
5
5
5
5
5
5
5
5
5
5
5
5
5
5
5
5
5
5
5
5
5
5
5
5
5
5
5
5
5
5
5
5
5
5
5
5
5
5
5
5
5
5
5
5
5
5
5
5
5
5
5
5
5
5
5
5
5
5
5
5
5
5
5
5
5
5
5
5
5
5
5
5
5
5
5
5
5
5
5
5
5
5
5
5
5
5
5
5
5
5
5
5
5
5
5
5
5
5
5
5
5
5
5
5
5
5
5
5
5
5
5
5
5
5
5
5
5
5
5
5
5
5
5
5
5
5
5
5
5
5
5
5
5
5
5
5
5
5
5
5
5
5
5
5
5
5
5
5
5
5
5
5
5
5
5
5
5
5
5
5
5
5
5
5
5
5
5
5
5
5
5
5
5
5
5
5
5
5
5
5
5
5
5
5
5
5
5
5
5
5
5
5
5
5
5
5
5
5
5
5
5
5
5
5
5
5
5
5
5
5
5
5
5
5
5
5
5
5
5
5
5
5
5
5
5
5
5
5
5
5
5
5
5
5

CELL_DATA 282
SCALARS cell_data_0 double
LOOKUP_TABLE default
1.16696114653e-06
9.47969692571e-07
1.45482694511e-06
2.26794649062e-06
1.8439349804e-05
2.87150093966e-05
2.18446742435e-06
2.75764779227e-06
4.47579846211e-06
1.15658153361e-05
9.77491594924e-07
4.45710905605e-06
5.70642951851e-07
1.04870311273e-06
1.49195730253e-06
3.47448374505e-06
1.18940777457e-07
1.04065513012e-06
5.03781337655e-07
1.4560785058e-06
1.70944068329e-06
6.41366142357e-07
2.67470764979e-06
5.50611708773e-06
2.83043669032e-05
0.000134406399562
1.13266452834e-05
1.09757924348e-05
4.69908014218e-07
1.5364070825e-06
3.15469080557e-06
9.79368921226e-07
4.25441418922e-06
1.53611074131e-06
4.72461184971e-06
2.55548802992e-05
5.28803459717e-06
1.09021668937e-05
1.81298796208e-05
1.39636698414e-05
9.9506970419e-06
6.93273477476e-08
5.08743343009e-06
4.81045290452e-06
4.53256381645e-07
1.39265742152e-08
6.46851953286e-06
3.024465995e-05
0.000218328920802
0.000430499741472
4.12739211274e-05
3.45753303304e-05
3.94371805218e-05
1.84689128587e-05
6.37505636429e-06
1.4648485072e-05
3.54499718918e-05
1.07141464905e-05
5.37899096698e-05
9.88508489036e-05
1.96252789525e-06
1.12016798802e-06
4.37732539429e-06
2.0029055209e-06
2.76442754675e-06
6.64493092541e-06
2.49980795802e-06
1.4291433049e-06
1.3657794441e-06
7.02112943924e-07
5.93849247734e-06
8.47637229666e-06
4.38563122305e-06
9.95111568219e-06
4.71829401773e-05
7.31425871805e-05
4.50396415896e-05
3.26026295175e-06
7.75135510708e-05
0.00063333096622
0.000766500121124
2.7968775663e-05
0.000112178819311
1.15683634136e-05
8.94551434004e-05
0.000110860282702
2.71789685319e-05
4.07996750688e-05
3.18676906856e-05
2.71773636119e-05
1.20734286799e-05
1.16236462573e-05
5.35317713243e-07
3.20414157276e-06
1.0090706819e-06
8.34503022477e-06
1.08665242994e-06
1.24189714619e-05
2.37879585601e-07
1.66796000207e-05
9.67002637352e-05
1.07089278216e-05
2.03728506821e-05
0.000342044569544
0.000616944874845
0.000103743972946
0.000319126256399
1.89346391847e-05
1.74979572508e-05
1.86708566092e-05
3.7628936289e-05
9.75642651198e-05
1.09810818356e-05
1.71748356694e-05
2.63271115958e-05
4.88009325818e-05
4.11187752475e-06
5.70385256932e-05
0.000107226376143
7.73536559053e-05
3.08828545099e-06
5.28843266579e-05
4.73590701039e-05
8.34832618261e-06
0.000184401108105
8.64810321553e-05
9.1968991293e-05
0.000263235380972
0.000884002753783
0.000342524204148
3.89084837579e-06
8.51306045756e-07
4.86453632825e-05
3.4507196738e-05
1.2986103516e-06
6.29467286824e-06
5.97428503653e-06
1.13317921342e-05
1.31295431565e-06
1.67063215166e-05
1.48432575643e-06
2.80042272472e-06
1.56667308361e-06
3.18031167003e-07
2.97071529483e-05
2.16595161196e-05
4.32187845915e-06
1.84371952975e-06
5.65973681308e-06
5.51957502862e-06
4.04727718471e-06
2.00934394171e-05
8.39892232832e-05
0.000102308870427
3.46517551417e-05
5.84278559668e-05
3.25997385615e-05
3.96555964236e-06
4.29614241485e-06
3.11360824781e-06
1.69151967026e-05
3.47495647903e-05
0.000103529188755
2.74129357666e-06
8.60079619145e-06
3.26410845728e-06
4.23669316139e-06
8.47676558698e-05
0.000125231653829
0.000387981891804
0.000126658546309
7.89170242766e-05
7.57181609278e-06
0.000137516841913
0.000318211372283
7.16839307676e-06
1.72475398184e-06
4.69165540253e-07
5.01288668876e-07
1.23044133426e-05
1.58360855178e-05
8.94485591489e-07
3.31931073775e-07
2.60619366425e-06
2.41008989102e-07
9.24514526367e-07
7.60472773953e-06
1.62515024366e-05
4.84277529174e-07
1.64405727192e-06
1.08575364463e-07
2.82156633333e-05
3.83588123606e-05
1.98247382406e-06
8.05149572554e-07
2.9942049873e-06
1.63102604542e-05
4.9442821922e-05
7.34903198461e-05
3.93569066678e-06
5.30894079994e-06
1.70594985212e-06
1.6171615848e-06
8.03593064709e-07
6.17448624624e-06
4.03969184162e-06
7.10409008661e-06
2.05190882443e-05
2.06194918606e-08
8.11514537e-07
2.03602481637e-06
5.74347718926e-06
1.34344159982e-06
2.52204525251e-06
1.15644183693e-06
3.9929746346e-06
3.93471139021e-06
2.06344471279e-06
1.03805686362e-05
6.63986156688e-06
9.42718918501e-07
0.000279541992264
0.000784905491532
2.85410977344e-05
4.06431991034e-05
0.000144657243771
8.03092500995e-05
6.56950609896e-06
1.03690477001e-06
8.36956428478e-05
5.829823707e-05
4.2859516002e-05
2.80485320536e-05
1.5495695443e-05
2.38349152157e-05
1.41323011414e-05
3.22982977586e-06
2.60979289625e-05
1.92798023016e-05
6.65945921536e-06
8.1766602885e-05
8.52974747793e-06
1.87065032715e-06
5.49588875305e-05
3.77290826087e-05
0.00209874071478
0.00173670874728
5.299260504e-06
6.66156726886e-05
1.5748781956e-05
9.63882483165e-05
4.53575016092e-05
3.76107455707e-05
1.02062033031e-05
0.000170770776378
0.000315252168458
0.00261770654763
9.90221063822e-05
2.50892391441e-05
2.90093734303e-05
3.94740065535e-05
0.000434099213522
0.000587559961566
0.000544350740631
5.7938899153e-05
0.000387753252653
0.00108088560128
0.00187472601121
0.000139838023016
4.10584060376e-05
0.000133719662453
1.49988615612e-05
1.28830985746e-05
2.34933719663e-05
7.10014490442e-05
2.8667667921e-05
6.00717269194e-05
5.83837991378e-05
0.000503046922123
0.000104772824885
0.000380887857854
0.000125422655537

