# vtk DataFile Version 3.0
File Name: Molecule/arg/arg_1.0-3.vtk
ASCII
DATASET UNSTRUCTURED_GRID
FIELD FieldData 1
TIME 1 1 double
0.0
POINTS 208 double
-3.403 0.327 1.604
-2.971 0.024 0.066
-2.981 -0.361 1.858
-2.549 -0.664 0.32
-2.984 0.046 0.042
-2.2 -0.483 -0.862
-2.216 -0.458 -0.889
-2.776 1.74 -0.497
-2.39 -0.269 -1.153
-2.211 1.177 -1.613
-2.622 1.932 -0.429
-1.982 1.439 -1.492
-1.81 1.654 -1.416
-2.495 2.657 0.67
-1.615 2.438 -0.879
-1.488 3.163 0.22
-3.186 2.284 1.521
-1.863 3.333 1.507
-2.53 2.972 2.328
-3.419 1.801 1.788
-2.717 2.558 2.345
-2.979 2.017 2.644
-3.408 0.559 1.798
-3.107 1.793 3.017
-3.095 0.593 3.027
-3.105 0.348 2.085
-3.1 0.088 1.867
-2.97 0.105 2.152
-2.978 0.383 3.085
-2.865 -0.346 2.113
-2.52 -0.7 2.425
-2.645 0.041 3.387
-1.592 -1.721 1.268
-2.003 -1.142 3.367
-0.984 -2.263 2.097
-2.487 -0.785 0.321
-0.96 -2.23 0.303
-1.943 -1.202 -0.738
-2.131 -0.618 -0.861
-2.114 -0.682 -1.181
-1.927 -1.264 -1.052
-2.312 -0.441 -1.376
-2.121 -0.506 -1.916
-1.682 -1.348 -1.746
-1.897 0.192 -2.527
-1.864 -0.768 -1.888
-1.57 0.147 -2.691
-2.011 1.039 -2.18
-1.198 0.386 -3.152
-1.348 1.496 -2.696
-1.72 1.257 -2.235
-1.479 1.817 -1.75
-1.107 2.057 -2.211
-1.319 2.584 -1.178
-0.816 3.013 -1.267
-0.543 2.537 -2.312
0.466 3.148 -0.891
-0.131 2.956 -2.042
0.328 3.005 -1.907
-0.048 3.337 -3.001
1.057 2.557 -0.305
0.892 2.689 -1.891
1.553 2.026 -1.234
0.737 2.845 0.68
1.539 1.918 0.039
1.22 2.206 1.024
0.406 3.093 0.833
1.112 2.426 2.108
0.748 2.699 2.276
-0.034 3.266 2.099
-0.687 3.194 3.654
0.006 2.617 4.044
-1.995 3.111 3.523
-0.58 2.815 3.881
-2.096 2.719 3.73
-1.061 1.806 4.483
-0.466 1.628 4.634
-2.128 2.66 3.763
-1.452 1.611 4.604
-2.373 2.347 3.982
-1.464 1.095 4.666
-0.48 1.041 4.705
-1.655 0.731 4.634
-0.333 0.517 4.869
-0.555 0.096 4.831
-2.342 0.241 4.242
-0.878 -0.357 4.785
-1.658 -0.914 4.34
0.164 -1.171 5.088
0.507 -0.734 5.141
0.709 -2.198 4.495
1.043 -0.806 5.264
1.588 -1.833 4.672
1.07 -2.477 3.273
1.949 -2.112 3.449
1.037 -1.846 2.131
1.916 -1.481 2.307
0.119 -2.499 2.107
0.77 -1.662 1.233
0.064 -2.164 1.215
1.061 -1.813 0.337
0.142 -2.466 0.313
-0.782 -1.983 1.207
1.48 -1.078 0.031
1.205 -1.217 1.373
1.436 -0.812 1.205
2.335 -0.746 2.002
1.639 -0.712 -0.547
1.697 -0.118 0.66
1.842 0.216 0.134
1.488 -1.753 -1.343
2.201 -0.141 -1.444
2.057 -1.14 -2.207
0.547 -2.053 -2.217
1.154 -1.428 -3.046
-0.548 -1.409 -2.576
0.104 -0.811 -3.39
-0.822 -1.287 -2.506
-0.336 -0.591 -3.197
-0.616 -0.466 -3.125
-0.988 -0.705 -2.664
0.101 0.716 -4.098
0.516 0.418 -4.238
-0.398 1.946 -3.588
0.377 1.347 -4.4
0.028 3.029 -3.665
0.9 3.106 -3.671
0.117 1.987 -4.134
0.819 3.383 -2.845
1.749 2.404 -3.353
1.668 2.681 -2.526
0.699 3.415 -2.782
1.123 2.627 -2.01
2.133 1.624 -1.992
2.194 2.159 -2.516
2.042 0.907 -1.262
2.428 1.273 -2.257
2.342 0.599 -1.57
1.976 0.918 0.014
1.83 1.363 -3.817
1.863 2.209 -3.379
1.103 1.869 -4.167
0.989 2.064 -4.14
1.884 1.434 1.198
2.541 0.959 2.592
1.842 1.579 2.299
1.814 2.002 3.263
2.513 1.382 3.555
1.359 1.937 4.21
2.058 1.316 4.502
0.651 1.408 4.781
1.35 0.788 5.074
0.82 0.891 4.947
-3.504 2.232 0.843
-3.504 1.707 -0.068
-3.94 1.181 0.843
-2.634 -1.288 1.367
0.675 3.275 -0.086
-1.198 3.606 3.478
-1.198 4.012 2.497
-2.179 3.606 2.497
-2.876 1.51 4.286
-0.744 -2.552 4.317
-0.744 -1.685 4.947
-1.656 -1.685 4.225
-0.744 -2.884 3.297
0.384 -2.884 3.297
0.438 -2.808 -0.834
-0.69 -2.808 -0.834
-0.69 -2.476 -1.854
1.35 -2.145 -0.834
0.799 2.522 4.049
3.668 -0.309 3.703
3.32 0.763 3.703
3.32 0.227 4.631
3.32 -0.845 4.631
3.32 -1.381 3.703
3.32 -0.845 2.775
3.32 0.227 2.775
2.408 0.227 5.353
2.408 -0.845 5.353
2.408 -1.712 4.723
2.923 0.206 -2.769
2.606 -0.584 -3.343
2.606 0.508 -3.698
1.775 -1.279 -3.309
1.775 -0.584 -4.137
0.749 -0.584 -4.137
0.3255 3.376 -2.8915
0.7995 3.2605 -3.2265
0.247 1.667 -4.267
-0.01 3.183 -3.333
0.553 2.0255 -4.137
0.683 1.7055 -4.27
0.13875 3.3565 -2.94625
0.5625 3.31825 -3.059
0.61275 3.241 -3.28125
0.37575 3.29875 -3.11375
0.189 3.27925 -3.1685
0.227 3.12525 -3.5005
0.49425 3.269875 -3.1975
0.519375 3.23125 -3.308625
0.400875 3.260125 -3.224875
0.426 3.2215 -3.336
0.663 3.16375 -3.5035
0.756375 3.1735 -3.476125
0.3265 3.173375 -3.41825
0.5635 3.115625 -3.58575

CELLS 412 1648
3 0 1 2
3 2 1 3
3 1 4 5
3 5 4 6
3 4 7 8
3 8 7 9
3 7 10 11
3 11 10 12
3 10 13 14
3 14 13 15
3 13 16 17
3 17 16 18
3 16 19 20
3 20 19 21
3 19 22 23
3 23 22 24
3 22 0 25
3 25 0 26
3 25 27 24
3 24 27 28
3 27 26 29
3 29 26 2
3 29 30 28
3 28 30 31
3 30 32 33
3 33 32 34
3 32 35 36
3 36 35 37
3 35 3 38
3 38 3 5
3 38 39 37
3 37 39 40
3 39 6 41
3 41 6 8
3 41 42 40
3 40 42 43
3 42 44 45
3 45 44 46
3 44 47 48
3 48 47 49
3 47 9 50
3 50 9 11
3 50 51 49
3 49 51 52
3 51 12 53
3 53 12 14
3 53 54 52
3 52 54 55
3 54 56 57
3 57 56 58
3 57 58 59
3 56 60 61
3 61 60 62
3 60 63 64
3 64 63 65
3 63 66 67
3 67 66 68
3 66 15 69
3 69 15 17
3 69 70 68
3 68 70 71
3 70 72 73
3 73 72 74
3 72 18 74
3 74 18 20
3 73 75 71
3 71 75 76
3 75 77 78
3 78 77 79
3 77 21 79
3 79 21 23
3 78 80 76
3 76 80 81
3 80 82 83
3 83 82 84
3 82 85 86
3 86 85 87
3 85 31 87
3 87 31 33
3 86 88 84
3 84 88 89
3 88 90 91
3 91 90 92
3 90 93 92
3 92 93 94
3 93 95 94
3 94 95 96
3 95 97 98
3 98 97 99
3 98 99 100
3 100 99 101
3 97 34 99
3 99 34 102
3 99 102 101
3 101 102 36
3 100 103 104
3 104 103 105
3 104 105 96
3 96 105 106
3 103 107 108
3 108 107 109
3 107 110 111
3 111 110 112
3 110 113 112
3 112 113 114
3 113 115 114
3 114 115 116
3 115 117 118
3 118 117 119
3 117 43 120
3 120 43 45
3 120 46 119
3 119 46 48
3 118 121 116
3 116 121 122
3 121 123 124
3 123 55 125
3 125 126 127
3 126 128 129
3 129 128 130
3 128 131 132
3 132 131 61
3 132 133 130
3 130 133 134
3 133 135 136
3 136 135 137
3 135 62 138
3 138 62 64
3 138 109 137
3 137 109 111
3 136 139 134
3 134 139 140
3 139 122 141
3 141 122 124
3 141 142 140
3 140 142 129
3 108 143 106
3 106 143 144
3 143 65 145
3 145 65 67
3 145 146 144
3 144 146 147
3 146 148 147
3 147 148 149
3 148 150 149
3 149 150 151
3 150 81 152
3 152 81 83
3 152 89 151
3 151 89 91
3 26 0 2
3 5 3 1
3 8 6 4
3 11 9 7
3 14 12 10
3 17 15 13
3 20 18 16
3 23 21 19
3 25 24 22
3 29 28 27
3 33 31 30
3 102 34 32
3 102 32 36
3 38 37 35
3 41 40 39
3 45 43 42
3 48 46 44
3 50 49 47
3 53 52 51
3 59 55 57
3 57 55 54
3 61 131 58
3 61 58 56
3 64 62 60
3 67 65 63
3 69 68 66
3 73 71 70
3 78 76 75
3 83 81 80
3 86 84 82
3 91 89 88
3 104 96 95
3 104 95 98
3 104 98 100
3 108 106 105
3 108 105 103
3 111 109 107
3 118 116 115
3 120 119 117
3 124 122 121
3 125 127 123
3 129 142 126
3 132 130 128
3 136 134 133
3 138 137 135
3 141 140 139
3 145 144 143
3 152 151 150
3 153 154 155
3 155 154 4
3 155 4 0
3 155 0 22
3 155 22 19
3 155 19 153
3 153 19 16
3 153 16 13
3 153 13 154
3 154 13 10
3 154 10 7
3 154 7 4
3 0 4 1
3 3 35 156
3 3 156 2
3 2 156 30
3 2 30 29
3 30 156 32
3 32 156 35
3 6 39 38
3 6 38 5
3 9 47 42
3 9 42 8
3 8 42 41
3 42 47 44
3 12 51 11
3 11 51 50
3 15 66 157
3 15 157 54
3 15 54 53
3 15 53 14
3 54 157 56
3 56 157 60
3 60 157 63
3 63 157 66
3 158 159 160
3 158 160 72
3 158 72 70
3 158 70 159
3 159 70 69
3 159 69 17
3 159 17 160
3 160 17 18
3 160 18 72
3 77 75 74
3 77 74 20
3 77 20 21
3 74 75 73
3 24 28 161
3 24 161 23
3 23 161 79
3 79 161 78
3 78 161 80
3 80 161 82
3 82 161 85
3 85 161 28
3 85 28 31
3 26 27 25
3 162 163 164
3 162 164 165
3 162 165 166
3 162 166 90
3 162 90 163
3 163 90 88
3 163 88 86
3 163 86 87
3 163 87 164
3 164 87 33
3 164 33 165
3 165 33 34
3 165 34 97
3 165 97 166
3 166 97 93
3 166 93 90
3 93 97 95
3 167 168 169
3 167 169 113
3 167 113 170
3 167 170 100
3 167 100 101
3 167 101 168
3 168 101 36
3 168 36 37
3 168 37 40
3 168 40 43
3 168 43 169
3 169 43 117
3 169 117 115
3 169 115 113
3 100 170 103
3 103 170 107
3 107 170 110
3 110 170 113
3 46 120 45
3 49 52 123
3 49 123 48
3 48 123 121
3 48 121 119
3 119 121 118
3 123 52 55
3 62 135 133
3 62 133 132
3 62 132 61
3 65 143 64
3 64 143 138
3 138 143 109
3 109 143 108
3 68 71 171
3 68 171 146
3 68 146 67
3 67 146 145
3 146 171 148
3 148 171 150
3 150 171 71
3 150 71 76
3 150 76 81
3 84 89 83
3 83 89 152
3 172 173 174
3 172 174 175
3 172 175 176
3 172 176 177
3 172 177 178
3 172 178 173
3 174 179 180
3 175 174 180
3 175 180 181
3 176 175 181
3 176 181 94
3 176 94 96
3 176 96 177
3 177 96 106
3 177 106 178
3 178 106 144
3 178 144 173
3 173 144 147
3 173 147 149
3 173 149 174
3 174 149 179
3 179 149 151
3 179 151 91
3 179 91 180
3 180 91 92
3 180 92 181
3 181 92 94
3 182 183 184
3 183 185 186
3 184 183 186
3 186 185 187
3 186 187 122
3 186 122 139
3 186 139 184
3 184 139 136
3 184 136 182
3 182 136 137
3 182 137 111
3 182 111 112
3 182 112 183
3 183 112 185
3 185 112 114
3 185 114 187
3 187 114 116
3 187 116 122
3 130 134 129
3 129 134 140
3 131 188 58
3 126 189 128
3 128 189 131
3 127 190 123
3 123 190 124
3 59 191 55
3 55 191 125
3 142 192 126
3 126 192 127
3 127 192 190
3 192 193 190
3 192 142 193
3 190 193 124
3 124 193 141
3 193 142 141
3 188 194 58
3 58 194 59
3 189 195 131
3 131 195 188
3 189 196 195
3 195 197 188
3 188 197 194
3 197 198 194
3 194 198 59
3 59 198 191
3 198 199 191
3 191 199 125
3 196 200 195
3 200 197 195
3 196 201 200
3 201 202 200
3 201 203 202
3 200 202 197
3 203 201 204
3 201 205 204
3 201 196 205
3 204 205 126
3 126 205 189
3 205 196 189
3 197 202 198
3 202 203 198
3 203 206 198
3 198 206 199
3 199 207 125
3 125 207 126
3 126 207 204
3 207 206 204
3 207 199 206
3 204 206 203

CELL_TYPES 412
5
5
5
5
5
5
5
5
5
5
5
5
5
5
5
5
5
5
5
5
5
5
5
5
5
5
5
5
5
5
5
5
5
5
5
5
5
5
5
5
5
5
5
5
5
5
5
5
5
5
5
5
5
5
5
5
5
5
5
5
5
5
5
5
5
5
5
5
5
5
5
5
5
5
5
5
5
5
5
5
5
5
5
5
5
5
5
5
5
5
5
5
5
5
5
5
5
5
5
5
5
5
5
5
5
5
5
5
5
5
5
5
5
5
5
5
5
5
5
5
5
5
5
5
5
5
5
5
5
5
5
5
5
5
5
5
5
5
5
5
5
5
5
5
5
5
5
5
5
5
5
5
5
5
5
5
5
5
5
5
5
5
5
5
5
5
5
5
5
5
5
5
5
5
5
5
5
5
5
5
5
5
5
5
5
5
5
5
5
5
5
5
5
5
5
5
5
5
5
5
5
5
5
5
5
5
5
5
5
5
5
5
5
5
5
5
5
5
5
5
5
5
5
5
5
5
5
5
5
5
5
5
5
5
5
5
5
5
5
5
5
5
5
5
5
5
5
5
5
5
5
5
5
5
5
5
5
5
5
5
5
5
5
5
5
5
5
5
5
5
5
5
5
5
5
5
5
5
5
5
5
5
5
5
5
5
5
5
5
5
5
5
5
5
5
5
5
5
5
5
5
5
5
5
5
5
5
5
5
5
5
5
5
5
5
5
5
5
5
5
5
5
5
5
5
5
5
5
5
5
5
5
5
5
5
5
5
5
5
5
5
5
5
5
5
5
5
5
5
5
5
5
5
5
5
5
5
5
5
5
5
5
5
5
5
5
5
5
5
5
5
5
5
5
5
5
5
5
5
5
5
5
5
5
5
5
5
5
5
5
5
5
5
5
5
5
5
5
5
5
5
5
5
5
5
5
5
5
5
5
5
5

CELL_DATA 412
SCALARS cell_data_0 double
LOOKUP_TABLE default
1.0563210793e-06
4.2112704192e-06
1.45244831379e-06
2.30606545752e-06
9.88849918094e-06
2.22744798731e-05
3.24710601549e-06
2.51731696903e-06
4.58417311099e-06
3.16013697643e-06
2.93163187154e-06
7.93546811757e-07
3.6372768711e-07
1.76926455124e-06
2.52358754096e-07
1.244146746e-06
2.69350088568e-07
5.32575335619e-07
8.57070915489e-07
1.48058778516e-06
1.32995104158e-06
2.18467368312e-07
8.86775167385e-07
1.36993856935e-05
7.63454586157e-06
4.89884247938e-05
3.37886083592e-06
7.73379681044e-06
3.66655949201e-07
2.77315641136e-06
1.00651113216e-06
3.49193376247e-06
5.78596562102e-06
1.61750207913e-06
1.60659858099e-06
2.25357664288e-05
7.33312856422e-06
7.01131009376e-06
1.35687005905e-05
8.9492161772e-06
9.7938566459e-06
1.11437404617e-06
2.48160402876e-06
7.18888834925e-08
2.75827725818e-07
4.05502319352e-06
3.15137264072e-06
4.7608165534e-06
5.38464928112e-06
3.25627044748e-06
9.15279405806e-06
1.40275643316e-06
5.03180530081e-06
9.7233650393e-06
5.98386850226e-06
5.56554427177e-07
3.5482179706e-05
1.70066632634e-05
7.90034021557e-06
3.64833469137e-05
1.97998888755e-05
1.93043794516e-06
1.82644713009e-06
6.37768089125e-07
2.22767536685e-06
2.36245503646e-06
2.58858219801e-06
5.1040792228e-07
2.01391150791e-06
2.20703411585e-07
4.51537863549e-07
1.58417563498e-06
3.15048469687e-07
3.18964440197e-06
3.1863103561e-06
2.36304701044e-06
1.23221988695e-06
3.16255361263e-05
2.23628143789e-05
3.1674911013e-06
2.64761894054e-06
1.53415581922e-05
5.98543721986e-05
1.06061648687e-05
5.70532580637e-05
0.000101356509057
5.27721545211e-05
4.17299943452e-06
6.38813269266e-06
6.20771527451e-06
1.1551750867e-05
1.40405393989e-06
1.09666117006e-06
1.11851825126e-06
6.5836889899e-06
5.67769123136e-06
2.53647841823e-06
3.74429755666e-06
1.22434919991e-05
1.55120745804e-06
5.94186795188e-06
2.72290741006e-07
5.7817442908e-06
9.41625874466e-06
7.08353966746e-06
4.40147177937e-06
1.2385923551e-05
1.64953354582e-06
2.10349554668e-07
3.00610126686e-07
3.23305367835e-07
9.07586799027e-07
5.28436834975e-06
6.60217467668e-06
5.59290795061e-07
5.80736043767e-05
8.22320668747e-06
8.12432049431e-05
1.35719412708e-05
2.4759654501e-05
1.03065158082e-05
5.63673883724e-06
4.82853575268e-05
7.22876547673e-05
1.50532197052e-05
2.01050015728e-07
4.05129782598e-06
7.68257929291e-06
6.06044722202e-06
1.67986619668e-05
9.52682494838e-05
0.000101850070024
3.09395815605e-05
0.000129946758649
1.45724270367e-05
1.71538065803e-05
1.49069947283e-05
2.98707850817e-06
2.93896897465e-06
1.18381469476e-05
6.60594254799e-05
0.000133775862505
0.000102272835488
4.62045222312e-06
4.7360196756e-06
1.38302721499e-05
5.70757974651e-07
8.20851082723e-07
1.6982323055e-06
3.30261156371e-06
1.46448715182e-06
6.42208809413e-06
8.5373730027e-06
9.34948857374e-06
4.00712510471e-06
1.21084088818e-05
2.0056466056e-06
2.90420431774e-06
1.39340495088e-06
9.05398243632e-07
2.50555762767e-05
9.07450895799e-07
4.4860308204e-06
4.90623225732e-06
1.00125824033e-06
4.42935297297e-06
4.49968936342e-06
3.85295589808e-06
6.08310685849e-06
2.78586975822e-06
3.91282684159e-06
2.30994401658e-07
1.08107271158e-06
1.02813875705e-05
7.5243985344e-06
3.21695992607e-05
1.3211016896e-06
1.05674592638e-06
9.65615493296e-07
1.15011359847e-06
4.46452444402e-06
2.7400558224e-05
5.25353327885e-07
9.95021800543e-06
4.85593452392e-06
2.05699194164e-06
7.7663141713e-06
3.26617809445e-06
3.2007009119e-06
3.471361459e-05
3.06671720424e-05
2.13393251288e-05
7.0902348703e-05
7.42237548407e-05
4.59699653789e-06
0.00011949159962
8.1862015332e-07
3.15709141808e-06
1.35244142235e-06
3.10784961974e-06
1.45171216437e-06
1.58386426277e-06
2.79463163057e-06
1.37557493389e-06
2.60765635134e-08
9.28873137722e-07
4.93519084931e-07
1.7430121709e-06
2.54705189434e-07
1.22789055891e-05
6.80132837249e-07
1.27043557785e-06
2.13278809231e-09
3.69152094167e-06
7.98664836346e-09
8.74625635409e-06
4.12966343979e-06
2.52916237363e-06
1.16635132553e-07
2.59366191908e-05
3.65961645241e-05
1.54217811319e-06
8.49926957263e-08
1.57888818227e-06
1.35179469451e-05
1.21639669653e-05
1.8399010921e-07
1.47379807855e-06
2.02330945166e-06
2.89283578863e-06
3.18560882779e-06
2.87799135959e-06
9.65526830843e-07
1.63256512829e-06
9.36999129956e-07
4.09593686926e-07
1.56942114594e-06
1.46137850242e-05
8.73501762535e-06
5.00799882875e-06
1.61146766369e-07
1.53894948186e-07
1.65170507727e-07
1.46454386295e-07
2.98411597836e-06
1.90496755615e-06
9.25176755805e-07
4.38764338587e-06
1.01584367862e-07
1.23746508759e-06
1.88239844566e-06
3.7820044302e-06
2.22215623753e-06
6.9590976312e-06
2.87192646839e-06
8.08388408863e-07
6.53538343481e-06
2.99322316545e-05
2.45974539684e-05
0.000202577738649
3.55394134975e-05
1.96069302277e-05
5.9562940011e-06
5.22350939112e-06
2.03186557432e-05
1.38168367556e-05
5.67040285837e-05
2.35575941782e-05
6.07938168964e-05
7.76523211525e-05
6.3278331932e-05
0.00011305579683
7.32688889999e-05
1.78063294108e-06
5.24388762865e-06
1.07142607804e-05
7.83294268976e-06
3.65967292475e-06
9.85546834241e-06
3.64962362027e-06
6.02141449013e-06
3.27353860117e-06
1.64566289939e-05
2.02631141656e-06
4.79690734252e-06
2.42931385993e-06
1.15795685768e-05
1.39051768211e-06
4.6455610461e-06
1.76128955164e-06
2.55159913132e-06
1.38326879624e-05
7.99133299154e-06
1.66416115683e-06
3.0143928757e-05
3.79142562466e-07
1.39490811081e-06
1.72183719739e-05
1.08290472477e-05
4.47295411929e-05
6.93140664177e-07
6.00718725698e-07
2.14707698855e-06
6.35328660831e-06
4.85947360493e-06
1.09984486421e-05
0.000300412189408
3.77107176591e-05
1.77774281085e-05
8.19869813449e-06
6.97341429438e-06
3.09840996125e-05
9.62851249746e-06
1.74794121844e-08
1.18567588518e-06
8.03806354713e-07
7.07675922508e-05
3.43169691124e-05
5.5905015802e-06
9.27597404278e-06
3.29871266355e-05
5.77736608948e-05
8.83718163127e-07
1.87887493336e-05
5.73946421134e-05
6.66519078297e-05
0.000270079102096
4.8931103898e-06
2.54222673108e-05
7.34787968837e-06
7.1558455973e-06
4.39436700406e-06
1.13537004722e-05
0.000106791943462
0.000160669395182
0.00011115912299
1.67616732032e-05
2.63468507896e-05
4.16459392136e-06
1.10540390711e-05
4.18847422498e-05
4.80364508259e-05
0.000112229024109
5.88685080144e-06
6.15858569159e-06
2.05234662325e-06
5.63449638633e-06
1.05235097819e-05
7.96600606384e-06
7.67530477768e-06
2.36654003828e-05
9.4902637207e-06
1.09524531299e-05
9.06261311695e-06
1.93953003967e-05
2.81304521368e-06
2.41181560582e-06
9.88214433078e-07
8.06502892866e-06
6.86131632809e-06
2.42057075238e-06
0.0003108135409
9.43322576717e-05
2.23363231825e-07
8.12369025482e-06
1.1503098436e-05
3.03524646342e-05
1.47200805166e-05
2.45943986364e-05
6.25358687497e-06
1.09592230732e-05
5.16033232806e-05
2.59133859873e-05
5.62300729246e-05
1.80414676715e-05
5.42062761593e-05
3.47699305325e-05
3.49264219099e-05
1.1130280028e-05
7.68310963416e-06
1.21594584296e-05
3.21854215592e-06
1.33265639106e-05
3.01368203889e-05
4.15021560322e-06
3.95387838635e-05
1.34617686961e-05
2.67433639274e-05
4.92068252546e-05
1.06858530266e-05
1.90524567375e-05
4.66306353286e-05
2.35239262776e-05
0.00021619774519
0.000340031250003
4.37077613006e-05
2.06648356304e-05
7.33777072801e-05
8.23616021399e-05
4.4862700826e-05
1.5857776037e-05
1.88465894352e-05
6.54831579303e-05
6.90230175273e-05
0.000129555084349
5.66149704157e-05
2.70827334253e-05
2.47276006206e-05
2.76015713401e-05
9.00532605124e-05
9.24944932352e-06
7.70203738003e-05

