# vtk DataFile Version 3.0
File Name: Molecule/arg/arg_0.5-1.vtk
ASCII
DATASET UNSTRUCTURED_GRID
FIELD FieldData 1
TIME 1 1 double
0.0
POINTS 146 double
-3.403 0.327 1.604
-2.971 0.024 0.066
-2.981 -0.361 1.858
-2.549 -0.664 0.32
-2.984 0.046 0.042
-2.2 -0.483 -0.862
-2.216 -0.458 -0.889
-2.776 1.74 -0.497
-2.39 -0.269 -1.153
-2.211 1.177 -1.613
-2.622 1.932 -0.429
-1.982 1.439 -1.492
-1.81 1.654 -1.416
-2.495 2.657 0.67
-1.615 2.438 -0.879
-1.488 3.163 0.22
-3.186 2.284 1.521
-1.863 3.333 1.507
-2.53 2.972 2.328
-3.419 1.801 1.788
-2.717 2.558 2.345
-2.979 2.017 2.644
-3.408 0.559 1.798
-3.107 1.793 3.017
-3.095 0.593 3.027
-3.105 0.348 2.085
-3.1 0.088 1.867
-2.97 0.105 2.152
-2.978 0.383 3.085
-2.865 -0.346 2.113
-2.52 -0.7 2.425
-2.645 0.041 3.387
-1.592 -1.721 1.268
-2.003 -1.142 3.367
-0.984 -2.263 2.097
-2.487 -0.785 0.321
-0.96 -2.23 0.303
-1.943 -1.202 -0.738
-2.131 -0.618 -0.861
-2.114 -0.682 -1.181
-1.927 -1.264 -1.052
-2.312 -0.441 -1.376
-2.121 -0.506 -1.916
-1.682 -1.348 -1.746
-1.897 0.192 -2.527
-1.864 -0.768 -1.888
-1.57 0.147 -2.691
-2.011 1.039 -2.18
-1.198 0.386 -3.152
-1.348 1.496 -2.696
-1.72 1.257 -2.235
-1.479 1.817 -1.75
-1.107 2.057 -2.211
-1.319 2.584 -1.178
-0.816 3.013 -1.267
-0.543 2.537 -2.312
0.466 3.148 -0.891
-0.048 3.337 -3.001
0.699 3.415 -2.782
1.057 2.557 -0.305
0.892 2.689 -1.891
1.553 2.026 -1.234
0.737 2.845 0.68
1.539 1.918 0.039
1.22 2.206 1.024
0.406 3.093 0.833
1.112 2.426 2.108
0.748 2.699 2.276
-0.034 3.266 2.099
-0.687 3.194 3.654
0.006 2.617 4.044
-1.995 3.111 3.523
-0.58 2.815 3.881
-2.096 2.719 3.73
-1.061 1.806 4.483
-0.466 1.628 4.634
-2.128 2.66 3.763
-1.452 1.611 4.604
-2.373 2.347 3.982
-1.464 1.095 4.666
-0.48 1.041 4.705
-1.655 0.731 4.634
-0.333 0.517 4.869
-0.555 0.096 4.831
-0.878 -0.357 4.785
0.164 -1.171 5.088
0.507 -0.734 5.141
0.93 -2.454 3.923
1.043 -0.806 5.264
1.809 -2.089 4.099
1.037 -1.846 2.131
1.916 -1.481 2.307
1.061 -1.813 0.337
1.48 -1.078 0.031
2.335 -0.746 2.002
1.639 -0.712 -0.547
1.697 -0.118 0.66
1.842 0.216 0.134
1.085 -2.024 -1.812
2.201 -0.141 -1.444
1.67 -1.4 -2.657
-0.548 -1.409 -2.576
0.104 -0.811 -3.39
-0.822 -1.287 -2.506
-0.336 -0.591 -3.197
-0.616 -0.466 -3.125
-0.988 -0.705 -2.664
0.101 0.716 -4.098
0.516 0.418 -4.238
-0.398 1.946 -3.588
0.377 1.347 -4.4
0.117 1.987 -4.134
0.028 3.029 -3.665
0.9 3.106 -3.671
0.989 2.064 -4.14
0.819 3.383 -2.845
1.749 2.404 -3.353
1.668 2.681 -2.526
1.123 2.627 -2.01
2.133 1.624 -1.992
2.194 2.159 -2.516
2.042 0.907 -1.262
2.428 1.273 -2.257
2.342 0.599 -1.57
1.976 0.918 0.014
1.83 1.363 -3.817
1.863 2.209 -3.379
1.103 1.869 -4.167
1.884 1.434 1.198
2.541 0.959 2.592
1.842 1.579 2.299
0.651 1.408 4.781
1.35 0.788 5.074
0.82 0.891 4.947
-3.94 1.181 0.843
-1.891 3.826 2.497
-2.589 1.578 4.495
-1.092 -1.939 4.665
0.786 -2.653 -0.834
3.668 -0.309 3.703
2.756 0.481 5.071
2.756 -1.099 5.071
2.093 -0.513 -4.015
1.2465 1.4935 3.54
0.924 2.098 3.1715
0.3285 2.0125 4.4125

CELLS 288 1152
3 0 1 2
3 2 1 3
3 1 4 5
3 5 4 6
3 4 7 8
3 8 7 9
3 7 10 11
3 11 10 12
3 10 13 14
3 14 13 15
3 13 16 17
3 17 16 18
3 16 19 20
3 20 19 21
3 19 22 23
3 23 22 24
3 22 0 25
3 25 0 26
3 25 27 24
3 24 27 28
3 27 26 29
3 29 26 2
3 29 30 28
3 28 30 31
3 30 32 33
3 33 32 34
3 32 35 36
3 36 35 37
3 35 3 38
3 38 3 5
3 38 39 37
3 37 39 40
3 39 6 41
3 41 6 8
3 41 42 40
3 40 42 43
3 42 44 45
3 45 44 46
3 44 47 48
3 48 47 49
3 47 9 50
3 50 9 11
3 50 51 49
3 49 51 52
3 51 12 53
3 53 12 14
3 53 54 52
3 52 54 55
3 54 56 57
3 57 56 58
3 56 59 60
3 60 59 61
3 59 62 63
3 63 62 64
3 62 65 66
3 66 65 67
3 65 15 68
3 68 15 17
3 68 69 67
3 67 69 70
3 69 71 72
3 72 71 73
3 71 18 73
3 73 18 20
3 72 74 70
3 70 74 75
3 74 76 77
3 77 76 78
3 76 21 78
3 78 21 23
3 77 79 75
3 75 79 80
3 79 81 82
3 82 81 83
3 81 31 84
3 84 31 33
3 84 85 83
3 83 85 86
3 85 87 88
3 88 87 89
3 87 90 89
3 89 90 91
3 90 34 92
3 92 34 36
3 92 93 91
3 91 93 94
3 93 95 96
3 96 95 97
3 95 98 99
3 99 98 100
3 98 101 100
3 100 101 102
3 101 103 104
3 104 103 105
3 103 43 106
3 106 43 45
3 106 46 105
3 105 46 48
3 104 107 102
3 102 107 108
3 107 109 110
3 110 109 111
3 109 55 112
3 112 55 57
3 112 113 111
3 111 113 114
3 113 115 116
3 116 115 117
3 115 58 118
3 118 58 60
3 118 119 117
3 117 119 120
3 119 121 122
3 122 121 123
3 121 61 124
3 124 61 63
3 124 97 123
3 123 97 99
3 122 125 120
3 120 125 126
3 125 108 127
3 127 108 110
3 127 114 126
3 126 114 116
3 96 128 94
3 94 128 129
3 128 64 130
3 130 64 66
3 129 131 132
3 131 80 133
3 133 80 82
3 133 86 132
3 132 86 88
3 26 0 2
3 5 3 1
3 8 6 4
3 11 9 7
3 14 12 10
3 17 15 13
3 20 18 16
3 23 21 19
3 25 24 22
3 29 28 27
3 33 31 30
3 36 34 32
3 38 37 35
3 41 40 39
3 45 43 42
3 48 46 44
3 50 49 47
3 53 52 51
3 57 55 54
3 60 58 56
3 63 61 59
3 66 64 62
3 68 67 65
3 72 70 69
3 77 75 74
3 82 80 79
3 84 83 81
3 88 86 85
3 92 91 90
3 96 94 93
3 99 97 95
3 104 102 101
3 106 105 103
3 110 108 107
3 112 111 109
3 116 114 113
3 118 117 115
3 122 120 119
3 124 123 121
3 127 126 125
3 130 129 128
3 133 132 131
3 0 22 134
3 0 134 4
3 0 4 1
3 4 134 7
3 7 134 13
3 7 13 10
3 13 134 16
3 16 134 19
3 19 134 22
3 3 35 2
3 2 35 32
3 2 32 30
3 2 30 29
3 6 39 38
3 6 38 5
3 9 47 42
3 9 42 8
3 8 42 41
3 42 47 44
3 12 51 11
3 11 51 50
3 15 65 56
3 15 56 54
3 15 54 53
3 15 53 14
3 56 65 62
3 56 62 59
3 71 69 135
3 71 135 18
3 18 135 17
3 17 135 68
3 68 135 69
3 76 74 73
3 76 73 20
3 76 20 21
3 73 74 72
3 24 28 136
3 24 136 23
3 23 136 78
3 78 136 77
3 77 136 79
3 79 136 81
3 81 136 31
3 31 136 28
3 26 27 25
3 34 90 87
3 34 87 137
3 34 137 33
3 33 137 84
3 84 137 85
3 85 137 87
3 37 40 36
3 36 40 43
3 36 43 138
3 36 138 92
3 92 138 93
3 93 138 98
3 93 98 95
3 98 138 101
3 101 138 43
3 101 43 103
3 46 106 45
3 49 52 109
3 49 109 48
3 48 109 107
3 48 107 105
3 105 107 104
3 109 52 55
3 58 115 113
3 58 113 57
3 57 113 112
3 61 121 119
3 61 119 118
3 61 118 60
3 64 128 63
3 63 128 124
3 124 128 97
3 97 128 96
3 67 70 66
3 131 75 80
3 83 86 82
3 82 86 133
3 139 140 141
3 139 141 89
3 139 89 91
3 139 91 94
3 139 94 129
3 139 129 140
3 140 129 132
3 140 132 88
3 140 88 141
3 141 88 89
3 102 108 142
3 102 142 100
3 100 142 99
3 99 142 123
3 123 142 122
3 122 142 125
3 125 142 108
3 111 114 110
3 110 114 127
3 117 120 116
3 116 120 126
3 130 143 129
3 143 131 129
3 70 144 66
3 66 144 130
3 130 144 143
3 144 145 143
3 144 70 145
3 143 145 131
3 131 145 75
3 145 70 75

CELL_TYPES 288
5
5
5
5
5
5
5
5
5
5
5
5
5
5
5
5
5
5
5
5
5
5
5
5
5
5
5
5
5
5
5
5
5
5
5
5
5
5
5
5
5
5
5
5
5
5
5
5
5
5
5
5
5
5
5
5
5
5
5
5
5
5
5
5
5
5
5
5
5
5
5
5
5
5
5
5
5
5
5
5
5
5
5
5
5
5
5
5
5
5
5
5
5
5
5
5
5
5
5
5
5
5
5
5
5
5
5
5
5
5
5
5
5
5
5
5
5
5
5
5
5
5
5
5
5
5
5
5
5
5
5
5
5
5
5
5
5
5
5
5
5
5
5
5
5
5
5
5
5
5
5
5
5
5
5
5
5
5
5
5
5
5
5
5
5
5
5
5
5
5
5
5
5
5
5
5
5
5
5
5
5
5
5
5
5
5
5
5
5
5
5
5
5
5
5
5
5
5
5
5
5
5
5
5
5
5
5
5
5
5
5
5
5
5
5
5
5
5
5
5
5
5
5
5
5
5
5
5
5
5
5
5
5
5
5
5
5
5
5
5
5
5
5
5
5
5
5
5
5
5
5
5
5
5
5
5
5
5
5
5
5
5
5
5
5
5
5
5
5
5
5
5
5
5
5
5
5
5
5
5
5
5
5
5
5
5
5
5

CELL_DATA 288
SCALARS cell_data_0 double
LOOKUP_TABLE default
2.5315632524e-07
7.2683893622e-07
1.41892315565e-06
2.23404768017e-06
1.72856161282e-05
2.83180124733e-05
2.3094944252e-06
2.98789980726e-06
4.89059694798e-06
9.24529883302e-06
1.0364229297e-06
7.87013030355e-07
5.14428369498e-07
1.07188840938e-06
2.50153991914e-06
1.26783973819e-06
1.25067674549e-07
1.05546702973e-06
7.08009622917e-07
1.0686871002e-06
1.71872758361e-06
7.24372759866e-07
3.068980438e-06
6.36663975793e-06
2.65310184168e-05
0.000135847992866
1.03523959786e-05
1.0457104568e-05
4.57828661976e-07
1.60380696445e-06
2.86691478954e-06
8.22908686166e-07
3.91926977576e-06
1.42696198343e-06
4.82682732236e-06
2.56904468149e-05
5.51436678349e-06
1.07165606003e-05
1.801810779e-05
1.38909511252e-05
1.00879668134e-05
1.05964824734e-07
5.28367814442e-06
4.66850074622e-06
3.80692348184e-07
6.43552565158e-08
6.53878510694e-06
2.99020042011e-05
0.000214459325395
0.000430750728536
3.84710102224e-05
1.67283112073e-05
2.63500118922e-06
5.19937832874e-05
6.81521079265e-05
6.06614149728e-05
3.75512513401e-05
9.14388006348e-06
4.93418359933e-05
0.000148116978708
1.89469195456e-05
6.87629776084e-06
9.51790420366e-06
8.68957635261e-06
5.11308951178e-05
1.37233123466e-05
2.52706815663e-07
2.22802745942e-06
2.22853548038e-06
1.14625499818e-06
2.17651806503e-05
2.7911483523e-05
8.96276910154e-06
1.07724490855e-05
4.82311786971e-05
6.6604879821e-05
4.71590174877e-05
8.55925607502e-07
7.98276442729e-05
0.000635841369756
0.000761925125614
2.54483104575e-05
0.000118879297815
1.4879533423e-05
0.000100045674448
0.00011770600658
2.42076262225e-05
3.12655569472e-05
2.9077293912e-05
2.82990533069e-05
1.30322333322e-05
1.1310169703e-05
2.73642277982e-07
3.34651073876e-06
5.78373612601e-07
7.87420464075e-06
7.31009844767e-07
1.24191624313e-05
5.15572128583e-07
1.63984744618e-05
9.62697316713e-05
1.03756972975e-05
1.99208563118e-05
0.000341935254438
0.000616515244239
0.00010384392827
0.00031726102549
1.84012586968e-05
1.75988550352e-05
1.76335580154e-05
4.13210858587e-05
9.67308139357e-05
1.33272122392e-05
1.71011692623e-05
3.57091935685e-05
6.65680792324e-06
1.01564388367e-05
6.22060983359e-05
0.000107367817806
7.74331490831e-05
3.08409115876e-06
5.26735915557e-05
4.74518873616e-05
8.31295510747e-06
0.00014063886117
0.000227176215306
3.60212284405e-05
0.000161289896664
0.000341626164288
2.0755042761e-05
1.07976209089e-05
4.39462950621e-05
4.37785597771e-05
1.12601498706e-06
6.19180739807e-06
6.34900012395e-06
1.13162496605e-05
1.03905729063e-06
1.6881753656e-05
2.80246258969e-06
1.71740831348e-06
1.34954562231e-06
1.55529405804e-08
2.73491813037e-05
2.16011234079e-05
3.33867261692e-06
1.51665422617e-06
5.63135123457e-06
5.53160944194e-06
4.21313326068e-06
1.96331146651e-05
8.55185849313e-05
9.59176703644e-05
1.28783713775e-05
5.03416597205e-05
4.30599158658e-05
1.48870375621e-05
1.44665940181e-05
1.83899708438e-05
1.62187129695e-05
3.43946650934e-05
0.000101503891004
3.12965871202e-05
1.35426453438e-05
3.19645646198e-06
4.11346971608e-06
8.4830246106e-05
0.000125156958234
0.000387470259821
0.000125315399914
7.79191409367e-05
7.38043499569e-06
0.000137091300878
5.63478098741e-05
7.79261428117e-06
1.75656202919e-06
3.98883316292e-07
4.46201296899e-07
1.2608143983e-05
1.56082820182e-05
1.08137568694e-06
3.45018185823e-06
1.38460302844e-06
7.21683478514e-07
8.69293533466e-07
1.02741607593e-05
1.70765022138e-05
3.78768792102e-07
1.64636938845e-06
1.01387874725e-07
2.87109771291e-05
3.89555408827e-05
1.88048064484e-06
1.07320828624e-06
2.99919715315e-06
1.64194702518e-05
2.76047234082e-05
8.04596455932e-05
5.07161953114e-06
4.54467935921e-06
2.78923910451e-06
3.29183914369e-06
7.65203228344e-06
6.45182701985e-07
6.79981025591e-06
2.528285716e-05
7.62667123433e-06
1.7332969165e-07
5.02529210136e-07
3.18162516989e-06
3.98267671474e-05
1.83402509552e-06
2.5450732773e-06
4.62935134412e-06
5.65193241277e-06
1.26986751745e-05
2.4096610861e-06
6.00801694941e-06
5.98650183961e-06
8.7352794474e-07
0.000284906450777
0.000788564107381
2.81969805723e-05
3.87109045754e-05
0.000146801940667
7.69880690845e-05
6.72393532253e-06
1.33364579871e-06
8.42489421976e-05
5.5214772716e-05
4.47566896881e-05
2.46836667942e-05
1.03211348418e-05
2.24385148297e-05
1.34999424964e-05
3.25068444e-06
2.60353685696e-05
1.90930195604e-05
6.86111618114e-06
8.20858202287e-05
8.40102233192e-06
1.92451032114e-06
5.55635767388e-05
3.79797772583e-05
0.00209543046773
0.00173714584282
1.74398520603e-06
6.20235452863e-05
1.51444727398e-05
2.67913394436e-05
4.53269883642e-05
1.06980202289e-05
1.118109959e-05
0.000208967904932
2.65972322891e-05
2.88071412514e-05
5.26788922995e-05
0.000419671650883
0.000597885122225
0.000554397811555
4.07433304593e-05
0.000412894348061
0.00102215752586
0.00185073659527
0.000108063648004
4.12087127646e-05
0.000121603063674
1.46205724399e-05
1.30252647534e-05
2.34522102007e-05
7.29949038151e-05
3.02445657028e-05
6.10736028674e-05
5.8899889055e-05
0.000503134168494
0.000104494121734
0.000379527405328
0.000125306516116
0.000296133253577
0.000293787121296
0.000529923156426
0.000232245176549
0.00136740814866
0.000497015979133
0.000361795356491
8.65580207088e-06
7.37465309944e-05
0.000163508230477

