# vtk DataFile Version 3.0
File Name: Molecule/arg/arg_1.0-4.vtk
ASCII
DATASET UNSTRUCTURED_GRID
FIELD FieldData 1
TIME 1 1 double
0.0
POINTS 217 double
-3.403 0.327 1.604
-2.971 0.024 0.066
-2.981 -0.361 1.858
-2.549 -0.664 0.32
-2.984 0.046 0.042
-2.2 -0.483 -0.862
-2.216 -0.458 -0.889
-2.776 1.74 -0.497
-2.39 -0.269 -1.153
-2.211 1.177 -1.613
-2.622 1.932 -0.429
-1.982 1.439 -1.492
-1.81 1.654 -1.416
-2.495 2.657 0.67
-1.615 2.438 -0.879
-1.488 3.163 0.22
-3.186 2.284 1.521
-1.863 3.333 1.507
-2.53 2.972 2.328
-3.419 1.801 1.788
-2.717 2.558 2.345
-2.979 2.017 2.644
-3.408 0.559 1.798
-3.107 1.793 3.017
-3.095 0.593 3.027
-3.105 0.348 2.085
-3.1 0.088 1.867
-2.97 0.105 2.152
-2.978 0.383 3.085
-2.865 -0.346 2.113
-2.52 -0.7 2.425
-2.645 0.041 3.387
-1.592 -1.721 1.268
-2.003 -1.142 3.367
-0.984 -2.263 2.097
-2.487 -0.785 0.321
-0.96 -2.23 0.303
-1.943 -1.202 -0.738
-2.131 -0.618 -0.861
-2.114 -0.682 -1.181
-1.927 -1.264 -1.052
-2.312 -0.441 -1.376
-2.121 -0.506 -1.916
-1.682 -1.348 -1.746
-1.897 0.192 -2.527
-1.864 -0.768 -1.888
-1.57 0.147 -2.691
-2.011 1.039 -2.18
-1.198 0.386 -3.152
-1.348 1.496 -2.696
-1.72 1.257 -2.235
-1.479 1.817 -1.75
-1.107 2.057 -2.211
-1.319 2.584 -1.178
-0.816 3.013 -1.267
-0.543 2.537 -2.312
0.466 3.148 -0.891
-0.131 2.956 -2.042
0.328 3.005 -1.907
-0.048 3.337 -3.001
1.057 2.557 -0.305
0.892 2.689 -1.891
1.553 2.026 -1.234
0.737 2.845 0.68
1.539 1.918 0.039
1.22 2.206 1.024
0.406 3.093 0.833
1.112 2.426 2.108
0.748 2.699 2.276
-0.034 3.266 2.099
-0.687 3.194 3.654
0.006 2.617 4.044
-1.995 3.111 3.523
-0.58 2.815 3.881
-2.096 2.719 3.73
-1.061 1.806 4.483
-0.466 1.628 4.634
-2.128 2.66 3.763
-1.452 1.611 4.604
-2.373 2.347 3.982
-1.464 1.095 4.666
-0.48 1.041 4.705
-1.655 0.731 4.634
-0.333 0.517 4.869
-0.555 0.096 4.831
-2.342 0.241 4.242
-0.878 -0.357 4.785
-1.658 -0.914 4.34
0.164 -1.171 5.088
0.507 -0.734 5.141
0.709 -2.198 4.495
1.043 -0.806 5.264
1.588 -1.833 4.672
1.07 -2.477 3.273
1.949 -2.112 3.449
1.037 -1.846 2.131
1.916 -1.481 2.307
0.119 -2.499 2.107
0.77 -1.662 1.233
0.064 -2.164 1.215
1.061 -1.813 0.337
0.142 -2.466 0.313
-0.782 -1.983 1.207
1.48 -1.078 0.031
1.205 -1.217 1.373
1.436 -0.812 1.205
2.335 -0.746 2.002
1.639 -0.712 -0.547
1.697 -0.118 0.66
1.842 0.216 0.134
1.488 -1.753 -1.343
2.201 -0.141 -1.444
2.057 -1.14 -2.207
0.547 -2.053 -2.217
1.154 -1.428 -3.046
-0.548 -1.409 -2.576
0.104 -0.811 -3.39
-0.822 -1.287 -2.506
-0.336 -0.591 -3.197
-0.616 -0.466 -3.125
-0.988 -0.705 -2.664
0.101 0.716 -4.098
0.516 0.418 -4.238
-0.398 1.946 -3.588
0.377 1.347 -4.4
0.028 3.029 -3.665
0.9 3.106 -3.671
0.117 1.987 -4.134
0.819 3.383 -2.845
1.749 2.404 -3.353
0.699 3.415 -2.782
1.123 2.627 -2.01
2.133 1.624 -1.992
1.668 2.681 -2.526
2.042 0.907 -1.262
2.428 1.273 -2.257
2.342 0.599 -1.57
1.976 0.918 0.014
1.83 1.363 -3.817
2.194 2.159 -2.516
1.863 2.209 -3.379
1.103 1.869 -4.167
0.989 2.064 -4.14
1.884 1.434 1.198
2.541 0.959 2.592
1.842 1.579 2.299
1.814 2.002 3.263
2.513 1.382 3.555
1.359 1.937 4.21
2.058 1.316 4.502
0.651 1.408 4.781
1.35 0.788 5.074
0.82 0.891 4.947
-3.504 2.232 0.843
-3.504 1.707 -0.068
-3.94 1.181 0.843
-2.634 -1.288 1.367
0.675 3.275 -0.086
-1.198 3.606 3.478
-1.198 4.012 2.497
-2.179 3.606 2.497
-2.876 1.51 4.286
-0.744 -2.552 4.317
-0.744 -1.685 4.947
-1.656 -1.685 4.225
-0.744 -2.884 3.297
0.384 -2.884 3.297
0.438 -2.808 -0.834
-0.69 -2.808 -0.834
-0.69 -2.476 -1.854
1.35 -2.145 -0.834
0.799 2.522 4.049
3.668 -0.309 3.703
3.32 0.763 3.703
3.32 0.227 4.631
3.32 -0.845 4.631
3.32 -1.381 3.703
3.32 -0.845 2.775
3.32 0.227 2.775
2.408 0.227 5.353
2.408 -0.845 5.353
2.408 -1.712 4.723
2.923 0.206 -2.769
2.606 -0.584 -3.343
2.606 0.508 -3.698
1.775 -1.279 -3.309
1.775 -0.584 -4.137
0.749 -0.584 -4.137
0.3255 3.376 -2.8915
0.7995 3.2605 -3.2265
0.247 1.667 -4.267
-0.01 3.183 -3.333
0.553 2.0255 -4.137
0.683 1.7055 -4.27
0.13875 3.3565 -2.94625
0.5625 3.31825 -3.059
0.61275 3.241 -3.28125
0.37575 3.29875 -3.11375
0.189 3.27925 -3.1685
0.227 3.12525 -3.5005
0.49425 3.269875 -3.1975
0.519375 3.23125 -3.308625
0.400875 3.260125 -3.224875
0.756375 3.1735 -3.476125
0.663 3.16375 -3.5035
0.426 3.2215 -3.336
0.3265 3.173375 -3.41825
0.5635 3.115625 -3.58575
1.7085 2.5425 -2.9395
1.931 2.42 -2.521
0.7735 2.6105 3.1625
1.281 2.3505 2.7695
1.3065 2.262 3.656
1.9715 2.2815 -2.9345
0.460125 3.2456875 -3.26675
0.4726875 3.226375 -3.3223125
0.4134375 3.2408125 -3.2804375

CELLS 430 1720
3 0 1 2
3 2 1 3
3 1 4 5
3 5 4 6
3 4 7 8
3 8 7 9
3 7 10 11
3 11 10 12
3 10 13 14
3 14 13 15
3 13 16 17
3 17 16 18
3 16 19 20
3 20 19 21
3 19 22 23
3 23 22 24
3 22 0 25
3 25 0 26
3 25 27 24
3 24 27 28
3 27 26 29
3 29 26 2
3 29 30 28
3 28 30 31
3 30 32 33
3 33 32 34
3 32 35 36
3 36 35 37
3 35 3 38
3 38 3 5
3 38 39 37
3 37 39 40
3 39 6 41
3 41 6 8
3 41 42 40
3 40 42 43
3 42 44 45
3 45 44 46
3 44 47 48
3 48 47 49
3 47 9 50
3 50 9 11
3 50 51 49
3 49 51 52
3 51 12 53
3 53 12 14
3 53 54 52
3 52 54 55
3 54 56 57
3 57 56 58
3 57 58 59
3 56 60 61
3 61 60 62
3 60 63 64
3 64 63 65
3 63 66 67
3 67 66 68
3 66 15 69
3 69 15 17
3 69 70 68
3 68 70 71
3 70 72 73
3 73 72 74
3 72 18 74
3 74 18 20
3 73 75 71
3 71 75 76
3 75 77 78
3 78 77 79
3 77 21 79
3 79 21 23
3 78 80 76
3 76 80 81
3 80 82 83
3 83 82 84
3 82 85 86
3 86 85 87
3 85 31 87
3 87 31 33
3 86 88 84
3 84 88 89
3 88 90 91
3 91 90 92
3 90 93 92
3 92 93 94
3 93 95 94
3 94 95 96
3 95 97 98
3 98 97 99
3 98 99 100
3 100 99 101
3 97 34 99
3 99 34 102
3 99 102 101
3 101 102 36
3 100 103 104
3 104 103 105
3 104 105 96
3 96 105 106
3 103 107 108
3 108 107 109
3 107 110 111
3 111 110 112
3 110 113 112
3 112 113 114
3 113 115 114
3 114 115 116
3 115 117 118
3 118 117 119
3 117 43 120
3 120 43 45
3 120 46 119
3 119 46 48
3 118 121 116
3 116 121 122
3 121 123 124
3 123 55 125
3 125 126 127
3 126 128 129
3 128 130 131
3 131 130 61
3 131 132 133
3 132 134 135
3 135 134 136
3 134 62 137
3 137 62 64
3 137 109 136
3 136 109 111
3 135 138 139
3 139 138 140
3 138 122 141
3 141 122 124
3 141 142 140
3 140 142 129
3 108 143 106
3 106 143 144
3 143 65 145
3 145 65 67
3 145 146 144
3 144 146 147
3 146 148 147
3 147 148 149
3 148 150 149
3 149 150 151
3 150 81 152
3 152 81 83
3 152 89 151
3 151 89 91
3 26 0 2
3 5 3 1
3 8 6 4
3 11 9 7
3 14 12 10
3 17 15 13
3 20 18 16
3 23 21 19
3 25 24 22
3 29 28 27
3 33 31 30
3 102 34 32
3 102 32 36
3 38 37 35
3 41 40 39
3 45 43 42
3 48 46 44
3 50 49 47
3 53 52 51
3 59 55 57
3 57 55 54
3 61 130 58
3 61 58 56
3 64 62 60
3 67 65 63
3 69 68 66
3 73 71 70
3 78 76 75
3 83 81 80
3 86 84 82
3 91 89 88
3 104 96 95
3 104 95 98
3 104 98 100
3 108 106 105
3 108 105 103
3 111 109 107
3 118 116 115
3 120 119 117
3 124 122 121
3 125 127 123
3 129 142 126
3 131 133 128
3 135 139 132
3 137 136 134
3 141 140 138
3 145 144 143
3 152 151 150
3 153 154 155
3 155 154 4
3 155 4 0
3 155 0 22
3 155 22 19
3 155 19 153
3 153 19 16
3 153 16 13
3 153 13 154
3 154 13 10
3 154 10 7
3 154 7 4
3 0 4 1
3 3 35 156
3 3 156 2
3 2 156 30
3 2 30 29
3 30 156 32
3 32 156 35
3 6 39 38
3 6 38 5
3 9 47 42
3 9 42 8
3 8 42 41
3 42 47 44
3 12 51 11
3 11 51 50
3 15 66 157
3 15 157 54
3 15 54 53
3 15 53 14
3 54 157 56
3 56 157 60
3 60 157 63
3 63 157 66
3 158 159 160
3 158 160 72
3 158 72 70
3 158 70 159
3 159 70 69
3 159 69 17
3 159 17 160
3 160 17 18
3 160 18 72
3 77 75 74
3 77 74 20
3 77 20 21
3 74 75 73
3 24 28 161
3 24 161 23
3 23 161 79
3 79 161 78
3 78 161 80
3 80 161 82
3 82 161 85
3 85 161 28
3 85 28 31
3 26 27 25
3 162 163 164
3 162 164 165
3 162 165 166
3 162 166 90
3 162 90 163
3 163 90 88
3 163 88 86
3 163 86 87
3 163 87 164
3 164 87 33
3 164 33 165
3 165 33 34
3 165 34 97
3 165 97 166
3 166 97 93
3 166 93 90
3 93 97 95
3 167 168 169
3 167 169 113
3 167 113 170
3 167 170 100
3 167 100 101
3 167 101 168
3 168 101 36
3 168 36 37
3 168 37 40
3 168 40 43
3 168 43 169
3 169 43 117
3 169 117 115
3 169 115 113
3 100 170 103
3 103 170 107
3 107 170 110
3 110 170 113
3 46 120 45
3 49 52 123
3 49 123 48
3 48 123 121
3 48 121 119
3 119 121 118
3 123 52 55
3 62 134 132
3 62 132 131
3 62 131 61
3 65 143 64
3 64 143 137
3 137 143 109
3 109 143 108
3 67 146 145
3 148 171 150
3 150 171 71
3 150 71 76
3 150 76 81
3 84 89 83
3 83 89 152
3 172 173 174
3 172 174 175
3 172 175 176
3 172 176 177
3 172 177 178
3 172 178 173
3 174 179 180
3 175 174 180
3 175 180 181
3 176 175 181
3 176 181 94
3 176 94 96
3 176 96 177
3 177 96 106
3 177 106 178
3 178 106 144
3 178 144 173
3 173 144 147
3 173 147 149
3 173 149 174
3 174 149 179
3 179 149 151
3 179 151 91
3 179 91 180
3 180 91 92
3 180 92 181
3 181 92 94
3 182 183 184
3 183 185 186
3 184 183 186
3 186 185 187
3 186 187 122
3 186 122 138
3 186 138 184
3 184 138 135
3 184 135 182
3 182 135 136
3 182 136 111
3 182 111 112
3 182 112 183
3 183 112 185
3 185 112 114
3 185 114 187
3 187 114 116
3 187 116 122
3 130 188 58
3 126 189 128
3 128 189 130
3 127 190 123
3 123 190 124
3 59 191 55
3 55 191 125
3 142 192 126
3 126 192 127
3 127 192 190
3 192 193 190
3 192 142 193
3 190 193 124
3 124 193 141
3 193 142 141
3 188 194 58
3 58 194 59
3 189 195 130
3 130 195 188
3 189 196 195
3 195 197 188
3 188 197 194
3 197 198 194
3 194 198 59
3 59 198 191
3 198 199 191
3 191 199 125
3 196 200 195
3 200 197 195
3 196 201 200
3 200 202 197
3 201 203 204
3 201 196 203
3 204 203 126
3 126 203 189
3 203 196 189
3 197 202 198
3 205 206 198
3 198 206 199
3 199 207 125
3 125 207 126
3 126 207 204
3 207 206 204
3 207 199 206
3 204 206 205
3 133 208 128
3 128 208 129
3 139 209 132
3 132 209 133
3 171 210 71
3 71 210 68
3 68 210 211
3 210 212 211
3 210 171 212
3 211 212 146
3 68 211 67
3 211 146 67
3 146 212 148
3 212 171 148
3 133 209 208
3 209 213 208
3 209 139 213
3 208 213 129
3 129 213 140
3 213 139 140
3 201 214 200
3 214 202 200
3 201 215 214
3 215 216 214
3 215 205 216
3 214 216 202
3 205 215 204
3 215 201 204
3 202 216 198
3 216 205 198

CELL_TYPES 430
5
5
5
5
5
5
5
5
5
5
5
5
5
5
5
5
5
5
5
5
5
5
5
5
5
5
5
5
5
5
5
5
5
5
5
5
5
5
5
5
5
5
5
5
5
5
5
5
5
5
5
5
5
5
5
5
5
5
5
5
5
5
5
5
5
5
5
5
5
5
5
5
5
5
5
5
5
5
5
5
5
5
5
5
5
5
5
5
5
5
5
5
5
5
5
5
5
5
5
5
5
5
5
5
5
5
5
5
5
5
5
5
5
5
5
5
5
5
5
5
5
5
5
5
5
5
5
5
5
5
5
5
5
5
5
5
5
5
5
5
5
5
5
5
5
5
5
5
5
5
5
5
5
5
5
5
5
5
5
5
5
5
5
5
5
5
5
5
5
5
5
5
5
5
5
5
5
5
5
5
5
5
5
5
5
5
5
5
5
5
5
5
5
5
5
5
5
5
5
5
5
5
5
5
5
5
5
5
5
5
5
5
5
5
5
5
5
5
5
5
5
5
5
5
5
5
5
5
5
5
5
5
5
5
5
5
5
5
5
5
5
5
5
5
5
5
5
5
5
5
5
5
5
5
5
5
5
5
5
5
5
5
5
5
5
5
5
5
5
5
5
5
5
5
5
5
5
5
5
5
5
5
5
5
5
5
5
5
5
5
5
5
5
5
5
5
5
5
5
5
5
5
5
5
5
5
5
5
5
5
5
5
5
5
5
5
5
5
5
5
5
5
5
5
5
5
5
5
5
5
5
5
5
5
5
5
5
5
5
5
5
5
5
5
5
5
5
5
5
5
5
5
5
5
5
5
5
5
5
5
5
5
5
5
5
5
5
5
5
5
5
5
5
5
5
5
5
5
5
5
5
5
5
5
5
5
5
5
5
5
5
5
5
5
5
5
5
5
5
5
5
5
5
5
5
5
5
5
5
5
5
5
5
5
5
5
5
5
5
5
5
5
5
5
5
5
5
5
5
5

CELL_DATA 430
SCALARS cell_data_0 double
LOOKUP_TABLE default
1.0657068643e-06
4.2017367605e-06
1.41860102559e-06
2.28953850204e-06
9.74517419098e-06
2.25671363532e-05
3.39150370076e-06
2.87087220628e-06
3.06323575688e-06
2.13758587167e-06
2.64125051993e-06
1.80552865609e-07
5.34945198037e-07
1.81372900759e-06
2.39330840332e-07
1.08795279224e-06
2.88416924289e-07
4.81651304335e-07
9.74734197265e-07
1.5620312328e-06
1.24435594294e-06
3.32012758603e-07
8.95102302727e-07
1.3686442846e-05
7.55837269858e-06
4.91496618142e-05
3.40003526856e-06
7.81140073861e-06
3.58053565176e-07
2.92413940573e-06
9.62104222873e-07
3.54424011702e-06
5.87329452139e-06
1.62584677333e-06
1.72659932839e-06
2.27548316025e-05
7.41167296057e-06
6.94374389735e-06
1.33735548948e-05
8.54662721023e-06
9.79728290521e-06
9.39980776796e-07
2.19871464369e-06
3.63563558987e-07
2.56531138267e-07
3.6154505447e-06
3.66389441447e-06
5.89639246422e-06
5.19604202732e-06
2.93177687974e-06
8.68498090002e-06
7.66952091433e-07
1.11806252686e-05
6.45619313446e-06
6.12610542115e-06
4.59980814258e-06
4.75062997297e-06
2.16393830055e-06
1.64990963338e-06
9.96804723115e-07
2.09833399163e-05
1.42618613931e-06
2.16564013222e-07
1.05899376798e-06
1.29773262218e-06
9.61321697186e-07
7.39552654239e-07
7.22070849903e-07
2.02815533932e-06
5.74122514815e-07
3.83603211353e-07
2.26819472002e-07
2.59830021656e-06
3.82457701675e-06
3.14167632312e-06
2.42552991107e-06
1.06614158982e-06
3.15605652855e-05
2.20642330941e-05
3.21856243096e-06
2.5932374064e-06
1.50754250034e-05
5.98174470681e-05
1.07866304149e-05
5.71165398594e-05
0.000100884025042
5.27732217331e-05
4.07538213567e-06
6.590954291e-06
6.20814906832e-06
1.15828469223e-05
1.32358227658e-06
1.02607264077e-06
1.09018521902e-06
6.70120515406e-06
5.07064894747e-06
2.32341618098e-06
3.55388582063e-06
1.29428571827e-05
2.10823035864e-06
6.98141408087e-06
4.13895217526e-07
5.21164792967e-06
9.61210697498e-06
7.30980994305e-06
4.55128482219e-06
1.21796497914e-05
1.59133213016e-06
1.86062396796e-07
4.01144914364e-07
3.23116211765e-07
1.089225804e-06
5.15283888055e-06
6.87145385868e-06
4.79499015287e-07
5.7442821094e-05
7.9374405201e-06
5.83467340946e-05
9.13747689212e-05
3.51382854765e-06
7.72312239123e-06
9.86868574825e-05
5.07335192872e-06
1.42680956786e-06
3.70201062638e-06
8.50222420339e-06
5.17499644606e-06
1.80219637993e-05
5.78685852871e-06
0.000215979694005
2.5927743835e-05
0.000133891866991
2.37410422108e-05
1.93679115729e-05
2.25970897294e-05
1.29977527635e-06
1.51387813377e-05
4.78318012263e-06
1.06309334406e-05
7.78855963286e-05
4.67284338225e-05
3.94183715102e-05
9.52570113637e-06
1.58356803926e-05
1.90195815928e-06
6.72904557484e-07
4.15888433326e-07
2.90858216048e-06
1.46315807394e-06
6.59822494347e-06
8.47674014525e-06
9.32313211387e-06
3.88348777818e-06
9.60961778302e-06
1.92331079851e-06
2.80599408594e-06
1.34243266211e-06
1.20004401922e-06
2.50479554869e-05
7.50852475534e-07
4.12317618873e-06
4.82096029297e-06
1.10930653068e-06
4.43460093367e-06
4.53391662776e-06
3.89097402245e-06
5.87829343955e-06
2.65787761276e-06
4.69133526391e-06
4.28415767941e-06
1.30965741197e-06
8.69812611596e-06
2.08879035331e-06
2.66387182884e-06
1.00990490948e-06
1.71640229485e-07
1.44542816013e-06
8.35686350842e-07
4.34515844578e-06
2.71409574266e-05
4.67554644265e-07
9.9167975994e-06
5.29921090758e-06
3.20713344407e-06
7.36480739607e-06
3.10323731436e-06
3.13015451442e-06
3.40635117371e-05
2.57908913928e-05
3.35507628802e-05
3.71442406769e-05
4.89465423587e-05
2.62434410007e-06
0.000113166882807
2.1768737576e-05
1.95114698918e-06
1.05912056677e-06
2.75018896728e-06
1.51902621275e-06
1.56483852678e-06
2.78215897621e-06
1.64501677041e-06
3.38278298832e-08
5.3611805911e-07
7.95581647866e-07
1.44986054235e-06
2.14337357242e-07
1.22835220473e-05
6.77801913254e-07
1.29024978657e-06
2.59317573918e-07
3.77141237423e-06
1.34698930583e-08
8.63192365619e-06
3.89292793375e-06
2.50615275024e-06
9.87339225405e-08
2.61035696677e-05
3.62467879825e-05
1.54316787719e-06
1.10479319775e-07
1.68689060663e-06
1.33449193364e-05
7.87415136287e-06
7.88826103915e-06
7.05825462611e-07
2.49596866532e-06
2.98683155605e-06
2.734039202e-06
3.4576455624e-06
2.57443174065e-06
1.7593994811e-06
1.87198645984e-06
2.172566532e-06
2.49043465231e-06
7.48613274306e-07
7.21345885943e-06
2.80536967606e-06
6.5998592587e-07
8.83366749475e-08
3.07744430877e-07
2.87409878418e-07
3.46822302784e-06
2.12291978532e-06
9.8202829139e-07
4.6884683131e-06
5.69853979944e-08
7.28509682954e-07
9.70004080742e-07
3.47878131075e-06
1.65767318367e-06
6.96989674012e-06
2.71851165343e-06
8.26790695725e-07
6.47610628684e-06
3.00008105591e-05
2.4600995841e-05
0.000202461143821
3.54935584136e-05
1.94362512243e-05
5.79640068905e-06
5.10841659645e-06
2.0408776768e-05
1.38227396974e-05
5.70007463686e-05
2.35319438835e-05
6.07320931827e-05
7.77836023572e-05
6.33848725858e-05
0.000113250617145
7.3107366832e-05
1.79377249276e-06
5.31863300549e-06
1.02513455573e-05
7.89522119706e-06
4.0795405985e-06
9.82366640631e-06
3.73418114443e-06
5.97317700886e-06
3.24369204764e-06
1.66830161654e-05
1.92679451355e-06
4.86206593055e-06
2.35399134462e-06
1.16592201633e-05
1.02335887816e-06
5.36243655586e-06
1.48868436104e-06
2.71147575858e-06
1.38011323042e-05
7.51454506534e-06
1.79439987657e-06
2.94470166445e-05
5.99353226525e-08
1.50826652061e-06
1.69214207919e-05
3.72785553718e-06
1.29935818027e-05
3.9683863878e-06
6.39591775643e-06
2.36485567475e-06
4.90904424472e-06
2.71352424646e-06
0.000116137482815
3.28440207886e-05
6.32892450172e-06
4.02506632267e-06
7.61891201129e-07
1.52317706724e-06
7.5834107998e-07
6.93970878025e-05
3.21649383896e-05
5.77476778314e-06
1.03866298788e-05
3.31881216372e-05
5.25894711949e-05
3.21482854757e-06
1.81870136719e-05
5.63591289457e-05
6.61249718072e-05
0.000270047149768
5.07788040653e-06
2.63426349138e-05
7.62552649053e-06
4.87714429345e-06
1.36796682134e-06
1.12025776193e-05
7.40689083646e-05
0.000143960819939
0.000125387275409
1.36293229159e-05
2.1590089454e-05
2.75114954848e-06
1.0809694662e-05
4.27756941711e-05
4.78756656979e-05
0.00011163621084
8.01004221827e-06
5.69400213784e-06
4.28715067021e-06
5.87550719191e-06
1.20159566882e-05
1.43216502234e-05
9.46647312118e-06
9.95743155249e-06
6.30345517545e-06
5.84988099839e-06
6.84809333714e-06
1.80741996926e-05
3.15485035563e-06
3.44936607773e-06
1.31242524785e-06
8.15633908383e-06
7.59279188347e-06
3.10245508176e-06
2.04873553397e-06
8.30309045891e-06
9.2305259205e-06
3.20374789489e-05
1.79710640998e-05
2.28383717689e-05
3.83018099183e-06
3.30758665604e-05
4.75584876849e-05
3.0516465208e-05
6.12398506422e-05
1.60867265949e-05
5.52994776362e-05
3.38140984867e-05
3.90149078794e-05
9.45176219033e-06
3.81595355494e-06
2.40145587399e-06
1.11665071341e-05
5.52036386956e-06
2.85073890011e-05
5.37765909613e-07
2.95682548293e-05
9.903737225e-06
1.89649267941e-05
4.14943515793e-05
9.48789474239e-06
5.72402849547e-05
7.61025672577e-05
3.98297960426e-05
3.07396503874e-05
4.64516879423e-05
5.46369947404e-05
3.64988801863e-05
1.60120170429e-05
6.36242862219e-06
3.10039692066e-05
0.000150898213417
4.51871122623e-05
1.63505569026e-05
1.90031019962e-05
1.8928305145e-05
7.23405215854e-05
9.28932948012e-06
0.00010444630299
7.35236951288e-05
1.39274579783e-05
6.41576871026e-05
2.22522185698e-05
1.17849785106e-05
5.45246658374e-06
3.98360072358e-05
4.97078247776e-05
2.39694906573e-05
4.17580459647e-05
4.56261201567e-05
8.88612880865e-07
1.23449381328e-07
1.99458645475e-05
3.89195151228e-05
8.01573948871e-05
6.81408200986e-05
2.63413790928e-06
4.29199383857e-05
3.066207024e-05
9.25942302295e-05
3.87531382597e-05
8.42961661305e-05
7.86880978398e-05
7.92538408338e-05
4.81932445935e-05
2.79574225852e-06
2.74302752668e-05
9.32346901206e-08
1.46549490551e-05

