# vtk DataFile Version 3.0
File Name: Molecule/arg/arg_1.0-2.vtk
ASCII
DATASET UNSTRUCTURED_GRID
FIELD FieldData 1
TIME 1 1 double
0.0
POINTS 201 double
-3.403 0.327 1.604
-2.971 0.024 0.066
-2.981 -0.361 1.858
-2.549 -0.664 0.32
-2.984 0.046 0.042
-2.2 -0.483 -0.862
-2.216 -0.458 -0.889
-2.776 1.74 -0.497
-2.39 -0.269 -1.153
-2.211 1.177 -1.613
-2.622 1.932 -0.429
-1.982 1.439 -1.492
-1.81 1.654 -1.416
-2.495 2.657 0.67
-1.615 2.438 -0.879
-1.488 3.163 0.22
-3.186 2.284 1.521
-1.863 3.333 1.507
-2.53 2.972 2.328
-3.419 1.801 1.788
-2.717 2.558 2.345
-2.979 2.017 2.644
-3.408 0.559 1.798
-3.107 1.793 3.017
-3.095 0.593 3.027
-3.105 0.348 2.085
-3.1 0.088 1.867
-2.97 0.105 2.152
-2.978 0.383 3.085
-2.865 -0.346 2.113
-2.52 -0.7 2.425
-2.645 0.041 3.387
-1.592 -1.721 1.268
-2.003 -1.142 3.367
-0.984 -2.263 2.097
-2.487 -0.785 0.321
-0.96 -2.23 0.303
-1.943 -1.202 -0.738
-2.131 -0.618 -0.861
-2.114 -0.682 -1.181
-1.927 -1.264 -1.052
-2.312 -0.441 -1.376
-2.121 -0.506 -1.916
-1.682 -1.348 -1.746
-1.897 0.192 -2.527
-1.864 -0.768 -1.888
-1.57 0.147 -2.691
-2.011 1.039 -2.18
-1.198 0.386 -3.152
-1.348 1.496 -2.696
-1.72 1.257 -2.235
-1.479 1.817 -1.75
-1.107 2.057 -2.211
-1.319 2.584 -1.178
-0.816 3.013 -1.267
-0.543 2.537 -2.312
0.466 3.148 -0.891
-0.131 2.956 -2.042
0.328 3.005 -1.907
-0.048 3.337 -3.001
1.057 2.557 -0.305
0.892 2.689 -1.891
1.553 2.026 -1.234
0.737 2.845 0.68
1.539 1.918 0.039
1.22 2.206 1.024
0.406 3.093 0.833
1.112 2.426 2.108
0.748 2.699 2.276
-0.034 3.266 2.099
-0.687 3.194 3.654
0.006 2.617 4.044
-1.995 3.111 3.523
-0.58 2.815 3.881
-2.096 2.719 3.73
-1.061 1.806 4.483
-0.466 1.628 4.634
-2.128 2.66 3.763
-1.452 1.611 4.604
-2.373 2.347 3.982
-1.464 1.095 4.666
-0.48 1.041 4.705
-1.655 0.731 4.634
-0.333 0.517 4.869
-0.555 0.096 4.831
-2.342 0.241 4.242
-0.878 -0.357 4.785
-1.658 -0.914 4.34
0.164 -1.171 5.088
0.507 -0.734 5.141
0.709 -2.198 4.495
1.043 -0.806 5.264
1.588 -1.833 4.672
1.07 -2.477 3.273
1.949 -2.112 3.449
1.037 -1.846 2.131
1.916 -1.481 2.307
0.119 -2.499 2.107
0.77 -1.662 1.233
0.064 -2.164 1.215
1.061 -1.813 0.337
0.142 -2.466 0.313
-0.782 -1.983 1.207
1.48 -1.078 0.031
1.205 -1.217 1.373
1.436 -0.812 1.205
2.335 -0.746 2.002
1.639 -0.712 -0.547
1.697 -0.118 0.66
1.842 0.216 0.134
1.488 -1.753 -1.343
2.201 -0.141 -1.444
2.057 -1.14 -2.207
0.547 -2.053 -2.217
1.154 -1.428 -3.046
-0.548 -1.409 -2.576
0.104 -0.811 -3.39
-0.822 -1.287 -2.506
-0.336 -0.591 -3.197
-0.616 -0.466 -3.125
-0.988 -0.705 -2.664
0.101 0.716 -4.098
0.516 0.418 -4.238
-0.398 1.946 -3.588
0.377 1.347 -4.4
0.028 3.029 -3.665
0.9 3.106 -3.671
0.117 1.987 -4.134
0.819 3.383 -2.845
1.749 2.404 -3.353
1.668 2.681 -2.526
0.699 3.415 -2.782
1.123 2.627 -2.01
2.133 1.624 -1.992
2.194 2.159 -2.516
2.042 0.907 -1.262
2.428 1.273 -2.257
2.342 0.599 -1.57
1.976 0.918 0.014
1.83 1.363 -3.817
1.863 2.209 -3.379
1.103 1.869 -4.167
0.989 2.064 -4.14
1.884 1.434 1.198
2.541 0.959 2.592
1.842 1.579 2.299
1.814 2.002 3.263
2.513 1.382 3.555
1.359 1.937 4.21
2.058 1.316 4.502
0.651 1.408 4.781
1.35 0.788 5.074
0.82 0.891 4.947
-3.504 2.232 0.843
-3.504 1.707 -0.068
-3.94 1.181 0.843
-2.634 -1.288 1.367
0.675 3.275 -0.086
-1.198 3.606 3.478
-1.198 4.012 2.497
-2.179 3.606 2.497
-2.876 1.51 4.286
-0.744 -2.552 4.317
-0.744 -1.685 4.947
-1.656 -1.685 4.225
-0.744 -2.884 3.297
0.384 -2.884 3.297
0.438 -2.808 -0.834
-0.69 -2.808 -0.834
-0.69 -2.476 -1.854
1.35 -2.145 -0.834
0.799 2.522 4.049
3.668 -0.309 3.703
3.32 0.763 3.703
3.32 0.227 4.631
3.32 -0.845 4.631
3.32 -1.381 3.703
3.32 -0.845 2.775
3.32 0.227 2.775
2.408 0.227 5.353
2.408 -0.845 5.353
2.408 -1.712 4.723
2.923 0.206 -2.769
2.606 -0.584 -3.343
2.606 0.508 -3.698
1.775 -1.279 -3.309
1.775 -0.584 -4.137
0.749 -0.584 -4.137
0.3255 3.376 -2.8915
0.7995 3.2605 -3.2265
0.247 1.667 -4.267
-0.01 3.183 -3.333
0.553 2.0255 -4.137
0.683 1.7055 -4.27
0.13875 3.3565 -2.94625
0.5625 3.31825 -3.059
0.61275 3.241 -3.28125
0.37575 3.29875 -3.11375
0.426 3.2215 -3.336
0.189 3.27925 -3.1685
0.227 3.12525 -3.5005

CELLS 398 1592
3 0 1 2
3 2 1 3
3 1 4 5
3 5 4 6
3 4 7 8
3 8 7 9
3 7 10 11
3 11 10 12
3 10 13 14
3 14 13 15
3 13 16 17
3 17 16 18
3 16 19 20
3 20 19 21
3 19 22 23
3 23 22 24
3 22 0 25
3 25 0 26
3 25 27 24
3 24 27 28
3 27 26 29
3 29 26 2
3 29 30 28
3 28 30 31
3 30 32 33
3 33 32 34
3 32 35 36
3 36 35 37
3 35 3 38
3 38 3 5
3 38 39 37
3 37 39 40
3 39 6 41
3 41 6 8
3 41 42 40
3 40 42 43
3 42 44 45
3 45 44 46
3 44 47 48
3 48 47 49
3 47 9 50
3 50 9 11
3 50 51 49
3 49 51 52
3 51 12 53
3 53 12 14
3 53 54 52
3 52 54 55
3 54 56 57
3 57 56 58
3 57 58 59
3 56 60 61
3 61 60 62
3 60 63 64
3 64 63 65
3 63 66 67
3 67 66 68
3 66 15 69
3 69 15 17
3 69 70 68
3 68 70 71
3 70 72 73
3 73 72 74
3 72 18 74
3 74 18 20
3 73 75 71
3 71 75 76
3 75 77 78
3 78 77 79
3 77 21 79
3 79 21 23
3 78 80 76
3 76 80 81
3 80 82 83
3 83 82 84
3 82 85 86
3 86 85 87
3 85 31 87
3 87 31 33
3 86 88 84
3 84 88 89
3 88 90 91
3 91 90 92
3 90 93 92
3 92 93 94
3 93 95 94
3 94 95 96
3 95 97 98
3 98 97 99
3 98 99 100
3 100 99 101
3 97 34 99
3 99 34 102
3 99 102 101
3 101 102 36
3 100 103 104
3 104 103 105
3 104 105 96
3 96 105 106
3 103 107 108
3 108 107 109
3 107 110 111
3 111 110 112
3 110 113 112
3 112 113 114
3 113 115 114
3 114 115 116
3 115 117 118
3 118 117 119
3 117 43 120
3 120 43 45
3 120 46 119
3 119 46 48
3 118 121 116
3 116 121 122
3 121 123 124
3 123 55 125
3 125 126 127
3 126 128 129
3 129 128 130
3 128 131 132
3 132 131 61
3 132 133 130
3 130 133 134
3 133 135 136
3 136 135 137
3 135 62 138
3 138 62 64
3 138 109 137
3 137 109 111
3 136 139 134
3 134 139 140
3 139 122 141
3 141 122 124
3 141 142 140
3 140 142 129
3 108 143 106
3 106 143 144
3 143 65 145
3 145 65 67
3 145 146 144
3 144 146 147
3 146 148 147
3 147 148 149
3 148 150 149
3 149 150 151
3 150 81 152
3 152 81 83
3 152 89 151
3 151 89 91
3 26 0 2
3 5 3 1
3 8 6 4
3 11 9 7
3 14 12 10
3 17 15 13
3 20 18 16
3 23 21 19
3 25 24 22
3 29 28 27
3 33 31 30
3 102 34 32
3 102 32 36
3 38 37 35
3 41 40 39
3 45 43 42
3 48 46 44
3 50 49 47
3 53 52 51
3 59 55 57
3 57 55 54
3 61 131 58
3 61 58 56
3 64 62 60
3 67 65 63
3 69 68 66
3 73 71 70
3 78 76 75
3 83 81 80
3 86 84 82
3 91 89 88
3 104 96 95
3 104 95 98
3 104 98 100
3 108 106 105
3 108 105 103
3 111 109 107
3 118 116 115
3 120 119 117
3 124 122 121
3 125 127 123
3 129 142 126
3 132 130 128
3 136 134 133
3 138 137 135
3 141 140 139
3 145 144 143
3 152 151 150
3 153 154 155
3 155 154 4
3 155 4 0
3 155 0 22
3 155 22 19
3 155 19 153
3 153 19 16
3 153 16 13
3 153 13 154
3 154 13 10
3 154 10 7
3 154 7 4
3 0 4 1
3 3 35 156
3 3 156 2
3 2 156 30
3 2 30 29
3 30 156 32
3 32 156 35
3 6 39 38
3 6 38 5
3 9 47 42
3 9 42 8
3 8 42 41
3 42 47 44
3 12 51 11
3 11 51 50
3 15 66 157
3 15 157 54
3 15 54 53
3 15 53 14
3 54 157 56
3 56 157 60
3 60 157 63
3 63 157 66
3 158 159 160
3 158 160 72
3 158 72 70
3 158 70 159
3 159 70 69
3 159 69 17
3 159 17 160
3 160 17 18
3 160 18 72
3 77 75 74
3 77 74 20
3 77 20 21
3 74 75 73
3 24 28 161
3 24 161 23
3 23 161 79
3 79 161 78
3 78 161 80
3 80 161 82
3 82 161 85
3 85 161 28
3 85 28 31
3 26 27 25
3 162 163 164
3 162 164 165
3 162 165 166
3 162 166 90
3 162 90 163
3 163 90 88
3 163 88 86
3 163 86 87
3 163 87 164
3 164 87 33
3 164 33 165
3 165 33 34
3 165 34 97
3 165 97 166
3 166 97 93
3 166 93 90
3 93 97 95
3 167 168 169
3 167 169 113
3 167 113 170
3 167 170 100
3 167 100 101
3 167 101 168
3 168 101 36
3 168 36 37
3 168 37 40
3 168 40 43
3 168 43 169
3 169 43 117
3 169 117 115
3 169 115 113
3 100 170 103
3 103 170 107
3 107 170 110
3 110 170 113
3 46 120 45
3 49 52 123
3 49 123 48
3 48 123 121
3 48 121 119
3 119 121 118
3 123 52 55
3 62 135 133
3 62 133 132
3 62 132 61
3 65 143 64
3 64 143 138
3 138 143 109
3 109 143 108
3 68 71 171
3 68 171 146
3 68 146 67
3 67 146 145
3 146 171 148
3 148 171 150
3 150 171 71
3 150 71 76
3 150 76 81
3 84 89 83
3 83 89 152
3 172 173 174
3 172 174 175
3 172 175 176
3 172 176 177
3 172 177 178
3 172 178 173
3 174 179 180
3 175 174 180
3 175 180 181
3 176 175 181
3 176 181 94
3 176 94 96
3 176 96 177
3 177 96 106
3 177 106 178
3 178 106 144
3 178 144 173
3 173 144 147
3 173 147 149
3 173 149 174
3 174 149 179
3 179 149 151
3 179 151 91
3 179 91 180
3 180 91 92
3 180 92 181
3 181 92 94
3 182 183 184
3 183 185 186
3 184 183 186
3 186 185 187
3 186 187 122
3 186 122 139
3 186 139 184
3 184 139 136
3 184 136 182
3 182 136 137
3 182 137 111
3 182 111 112
3 182 112 183
3 183 112 185
3 185 112 114
3 185 114 187
3 187 114 116
3 187 116 122
3 130 134 129
3 129 134 140
3 131 188 58
3 126 189 128
3 128 189 131
3 127 190 123
3 123 190 124
3 59 191 55
3 55 191 125
3 142 192 126
3 126 192 127
3 127 192 190
3 192 193 190
3 192 142 193
3 190 193 124
3 124 193 141
3 193 142 141
3 188 194 58
3 58 194 59
3 189 195 131
3 131 195 188
3 189 196 195
3 196 197 195
3 196 198 197
3 195 197 188
3 198 196 126
3 126 196 189
3 188 197 194
3 197 199 194
3 197 198 199
3 194 199 59
3 59 199 191
3 199 200 191
3 199 198 200
3 191 200 125
3 125 200 126
3 126 200 198

CELL_TYPES 398
5
5
5
5
5
5
5
5
5
5
5
5
5
5
5
5
5
5
5
5
5
5
5
5
5
5
5
5
5
5
5
5
5
5
5
5
5
5
5
5
5
5
5
5
5
5
5
5
5
5
5
5
5
5
5
5
5
5
5
5
5
5
5
5
5
5
5
5
5
5
5
5
5
5
5
5
5
5
5
5
5
5
5
5
5
5
5
5
5
5
5
5
5
5
5
5
5
5
5
5
5
5
5
5
5
5
5
5
5
5
5
5
5
5
5
5
5
5
5
5
5
5
5
5
5
5
5
5
5
5
5
5
5
5
5
5
5
5
5
5
5
5
5
5
5
5
5
5
5
5
5
5
5
5
5
5
5
5
5
5
5
5
5
5
5
5
5
5
5
5
5
5
5
5
5
5
5
5
5
5
5
5
5
5
5
5
5
5
5
5
5
5
5
5
5
5
5
5
5
5
5
5
5
5
5
5
5
5
5
5
5
5
5
5
5
5
5
5
5
5
5
5
5
5
5
5
5
5
5
5
5
5
5
5
5
5
5
5
5
5
5
5
5
5
5
5
5
5
5
5
5
5
5
5
5
5
5
5
5
5
5
5
5
5
5
5
5
5
5
5
5
5
5
5
5
5
5
5
5
5
5
5
5
5
5
5
5
5
5
5
5
5
5
5
5
5
5
5
5
5
5
5
5
5
5
5
5
5
5
5
5
5
5
5
5
5
5
5
5
5
5
5
5
5
5
5
5
5
5
5
5
5
5
5
5
5
5
5
5
5
5
5
5
5
5
5
5
5
5
5
5
5
5
5
5
5
5
5
5
5
5
5
5
5
5
5
5
5
5
5
5
5
5
5
5
5
5
5
5
5
5
5
5
5
5
5
5
5
5
5
5
5
5
5
5
5
5
5

CELL_DATA 398
SCALARS cell_data_0 double
LOOKUP_TABLE default
8.98278975923e-07
4.45292539187e-06
1.39853569106e-06
2.3008546492e-06
9.65753325313e-06
2.23178689105e-05
3.15708727632e-06
2.44249215779e-06
4.50745079498e-06
3.16018497754e-06
2.99153973417e-06
7.04247890316e-07
3.90524486089e-07
1.86546365315e-06
1.93377651283e-07
1.24801411732e-06
2.35693372832e-07
5.0675783006e-07
7.10511365664e-07
1.49691734214e-06
1.19897559894e-06
2.52911474466e-07
7.82655242133e-07
1.3771195573e-05
7.56424843239e-06
4.90654892815e-05
3.38112606721e-06
7.77193180733e-06
3.97464720468e-07
2.82934519945e-06
1.14505125988e-06
3.48071957537e-06
5.80176318351e-06
1.61096402137e-06
1.54328457974e-06
2.24683199968e-05
7.32400718462e-06
7.19467459167e-06
1.39656433176e-05
1.06395579923e-05
9.58187657103e-06
1.03054837395e-06
2.70518869749e-06
1.17445592905e-06
8.93916775221e-07
4.03099593817e-06
5.21407107887e-06
2.34514110372e-06
6.2510026644e-06
1.9196808144e-06
3.71614326628e-07
3.13181147434e-06
8.57629711528e-06
9.20098137534e-06
6.09364817337e-06
4.43980576964e-07
3.57023539666e-05
1.69882273617e-05
8.21333367495e-06
3.61757560449e-05
2.0136951375e-05
1.84994105422e-06
1.9122026085e-06
6.08334435128e-07
2.29545694973e-06
2.26138421866e-06
2.63810183583e-06
3.88884793523e-07
2.04645993781e-06
1.38169937974e-07
4.61418152206e-07
1.539402416e-06
4.19562310285e-07
3.2245410809e-06
3.21408702103e-06
2.25844340047e-06
1.50284780064e-06
3.15070640087e-05
2.2387322234e-05
3.02577821068e-06
2.71376377386e-06
1.54052453631e-05
5.97965028947e-05
1.06610611227e-05
5.71102375906e-05
0.000100962636867
5.26480621643e-05
4.24696386892e-06
6.68846112689e-06
6.34730794134e-06
1.15749060736e-05
1.38620233294e-06
9.61719368586e-07
1.34955014217e-06
6.69738944247e-06
5.40136252664e-06
2.51757784096e-06
3.56870947321e-06
1.22151688993e-05
1.40132883161e-06
5.72040248536e-06
2.74946210384e-07
5.68780653397e-06
9.42832335648e-06
7.00790489517e-06
4.16599017396e-06
1.24839265685e-05
1.69638709349e-06
1.43273700888e-07
1.02871037413e-10
7.10070617867e-07
1.94767389045e-07
5.36154370164e-06
6.86353364844e-06
8.17855757293e-07
5.83060684009e-05
2.01867560641e-05
0.000145065370428
9.61875250945e-05
5.62620821095e-05
5.28592399518e-06
8.03540496672e-06
5.68033179967e-05
6.73202645264e-05
1.45089718648e-05
4.70094280675e-07
3.70475404152e-06
7.48838425494e-06
5.82243391538e-06
1.67023004454e-05
9.60157387206e-05
0.000110917474978
3.47492303544e-05
0.000129928868912
2.19310031613e-05
3.18361926405e-05
1.52067665893e-05
2.82980048778e-06
2.96201065917e-06
1.17126174709e-05
6.5988369507e-05
0.000133532679728
0.00010178772628
4.34272312101e-06
4.8018352426e-06
1.36535006568e-05
4.99958923447e-07
6.30074090661e-07
1.8125610508e-06
3.21299258983e-06
1.37214003281e-06
6.46492195809e-06
8.63849835924e-06
9.42310020337e-06
4.41335572194e-06
1.20776847143e-05
1.96716904794e-06
2.88370922016e-06
1.27088822376e-06
9.78133668848e-07
2.51037305124e-05
8.15955902722e-07
4.19399857845e-06
5.03324196877e-06
1.08369690574e-06
4.42562664869e-06
4.63015396917e-06
3.91119937623e-06
6.82643372582e-06
9.8730468911e-07
1.38122039369e-07
1.49376751356e-05
5.81764934398e-06
1.11379545151e-05
7.78621099722e-06
3.19461282883e-05
1.23901052467e-06
1.06923893747e-06
1.07147371842e-06
1.16970963254e-06
4.47946760443e-06
2.71342324028e-05
4.34371615802e-07
9.83689839075e-06
4.6425028822e-06
2.45811104732e-06
7.80675646824e-06
3.47906941087e-06
3.04810104197e-06
3.62312386286e-05
6.53184875059e-05
3.58026596127e-05
7.42688790652e-05
7.47567525393e-05
4.30232353257e-06
0.000107752441229
9.74324551585e-07
3.10058731434e-06
1.51362391468e-06
2.99585459615e-06
1.40643848877e-06
1.50932510557e-06
2.87481357295e-06
1.2110628078e-06
1.04549785175e-07
8.13252664492e-07
5.06497118281e-07
1.99167893207e-06
2.71699826202e-07
1.22475285679e-05
6.53119097388e-07
1.22319486825e-06
1.84020586528e-07
3.6481475532e-06
9.23595789655e-09
8.67249800174e-06
4.03534601654e-06
2.48069404985e-06
1.1423289923e-07
2.64332440319e-05
3.61057432544e-05
1.47724792621e-06
3.63409893287e-07
1.73981851273e-06
1.40285689829e-05
1.20601329943e-05
8.53919598173e-07
1.23457980857e-06
2.23115457777e-06
3.61060597587e-06
3.25862510806e-06
3.41771247838e-06
8.56402984533e-07
1.56388050521e-06
9.79537732072e-07
3.69423412708e-07
1.54908232445e-06
1.4776914016e-05
8.91610523924e-06
5.07623202863e-06
7.01718445897e-08
2.27948993186e-07
1.75509953881e-07
1.40791714032e-07
2.93198569442e-06
1.96948724184e-06
8.88391078104e-07
4.21100357457e-06
2.03339572573e-07
1.13952743528e-06
1.91897042984e-06
3.85046794944e-06
2.27872438347e-06
6.89886097287e-06
2.84065233987e-06
7.87503645506e-07
6.47196399887e-06
2.98571000484e-05
2.47509869116e-05
0.000202629510691
3.55462664709e-05
1.97773066401e-05
5.78048597559e-06
5.16201605984e-06
2.03266361463e-05
1.37828142349e-05
5.68227232024e-05
2.36559105088e-05
6.08639313373e-05
7.77044109647e-05
6.32166763934e-05
0.000113257827154
7.36043072782e-05
1.6278630253e-06
5.17353989261e-06
1.05078110255e-05
7.68210210669e-06
4.11767165758e-06
9.83970681063e-06
3.65236703169e-06
5.98528120073e-06
3.33880012122e-06
1.65761717847e-05
1.89011473594e-06
4.89132565305e-06
2.39460624887e-06
1.14334993048e-05
1.12436020192e-06
4.70579439032e-06
1.94856344357e-06
2.68502618084e-06
1.38372179564e-05
7.93150370182e-06
2.60489141227e-06
3.69362274968e-05
1.16080792514e-06
1.23470650162e-06
2.66467527474e-05
9.03536065657e-06
4.15796933583e-05
1.78510635298e-07
6.2495901806e-07
2.48264714481e-06
6.35570942081e-06
5.14123063984e-06
1.09677592224e-05
0.000300524258741
3.75167455467e-05
1.79458756346e-05
8.32444992507e-06
6.86637925852e-06
3.09432260699e-05
9.53029842695e-06
2.64402774989e-09
9.55921506672e-07
8.14912530849e-07
7.06155057847e-05
3.42512251734e-05
5.51115332924e-06
9.09933972325e-06
3.31579584197e-05
5.78470322779e-05
8.27319072045e-07
1.89274171366e-05
5.71768512523e-05
6.66662126716e-05
0.00026997791329
4.40151559208e-06
2.54422908633e-05
7.44829500265e-06
7.05352786271e-06
4.06895600277e-06
1.13883096435e-05
0.000107004434182
0.000160657327907
0.000111334569174
1.70617996909e-05
2.64540175045e-05
4.2491631046e-06
1.10534215095e-05
4.19278372178e-05
4.80638702864e-05
0.000111827076669
5.86339626318e-06
6.21597970057e-06
2.329038953e-06
5.68202379747e-06
1.07827814103e-05
8.82634385583e-06
8.23244370987e-06
2.27630696892e-05
1.00149988256e-05
1.12844390966e-05
9.08542532273e-06
1.94312028587e-05
2.93903407417e-06
2.47509770637e-06
9.59054519988e-07
8.19961376745e-06
6.79559134969e-06
2.55409841199e-06
0.000299930390865
9.07647256005e-05
2.76376021288e-05
3.03616840155e-05
7.7189660657e-06
2.9924350549e-05
1.0732254494e-05
3.43982064265e-05
2.90791614558e-05
7.51644387483e-06
1.68621251515e-05
1.85245053322e-05
5.6931859424e-05
8.06777772128e-06
4.69094057786e-05
3.09676440485e-05
3.59711420912e-05
2.45587464789e-05
1.35113011012e-05
2.49234168997e-06
1.38361979265e-05
2.55142363201e-05
9.35596017561e-05
0.000695854816717
8.46900402676e-05
8.16626020389e-05
8.74404638975e-05
5.42100827747e-05
6.77935952531e-05
9.22178008763e-05
1.75562073748e-05
1.38080967839e-05
0.000111129433069
0.000112238979053
3.09419024658e-05
0.000197086740624
0.000516448835339

