# vtk DataFile Version 3.0
File Name: Molecule/arg/arg_1.0-5.vtk
ASCII
DATASET UNSTRUCTURED_GRID
FIELD FieldData 1
TIME 1 1 double
0.0
POINTS 229 double
-3.403 0.327 1.604
-2.971 0.024 0.066
-2.981 -0.361 1.858
-2.549 -0.664 0.32
-2.984 0.046 0.042
-2.2 -0.483 -0.862
-2.216 -0.458 -0.889
-2.776 1.74 -0.497
-2.39 -0.269 -1.153
-2.211 1.177 -1.613
-2.622 1.932 -0.429
-1.982 1.439 -1.492
-1.81 1.654 -1.416
-2.495 2.657 0.67
-1.615 2.438 -0.879
-1.488 3.163 0.22
-3.186 2.284 1.521
-1.863 3.333 1.507
-2.53 2.972 2.328
-3.419 1.801 1.788
-2.717 2.558 2.345
-2.979 2.017 2.644
-3.408 0.559 1.798
-3.107 1.793 3.017
-3.095 0.593 3.027
-3.105 0.348 2.085
-3.1 0.088 1.867
-2.97 0.105 2.152
-2.978 0.383 3.085
-2.865 -0.346 2.113
-2.52 -0.7 2.425
-2.645 0.041 3.387
-1.592 -1.721 1.268
-2.003 -1.142 3.367
-0.984 -2.263 2.097
-2.487 -0.785 0.321
-0.96 -2.23 0.303
-1.943 -1.202 -0.738
-2.131 -0.618 -0.861
-2.114 -0.682 -1.181
-1.927 -1.264 -1.052
-2.312 -0.441 -1.376
-2.121 -0.506 -1.916
-1.682 -1.348 -1.746
-1.897 0.192 -2.527
-1.864 -0.768 -1.888
-1.57 0.147 -2.691
-2.011 1.039 -2.18
-1.198 0.386 -3.152
-1.348 1.496 -2.696
-1.72 1.257 -2.235
-1.479 1.817 -1.75
-1.107 2.057 -2.211
-1.319 2.584 -1.178
-0.816 3.013 -1.267
-0.543 2.537 -2.312
0.466 3.148 -0.891
-0.131 2.956 -2.042
0.328 3.005 -1.907
-0.048 3.337 -3.001
1.057 2.557 -0.305
0.892 2.689 -1.891
1.553 2.026 -1.234
0.737 2.845 0.68
1.539 1.918 0.039
1.22 2.206 1.024
0.406 3.093 0.833
1.112 2.426 2.108
0.748 2.699 2.276
-0.034 3.266 2.099
-0.687 3.194 3.654
0.006 2.617 4.044
-1.995 3.111 3.523
-0.58 2.815 3.881
-2.096 2.719 3.73
-1.061 1.806 4.483
-0.466 1.628 4.634
-2.128 2.66 3.763
-1.452 1.611 4.604
-2.373 2.347 3.982
-1.464 1.095 4.666
-0.48 1.041 4.705
-1.655 0.731 4.634
-0.333 0.517 4.869
-0.555 0.096 4.831
-2.342 0.241 4.242
-0.878 -0.357 4.785
-1.658 -0.914 4.34
0.164 -1.171 5.088
0.507 -0.734 5.141
0.709 -2.198 4.495
1.043 -0.806 5.264
1.588 -1.833 4.672
1.07 -2.477 3.273
1.949 -2.112 3.449
1.037 -1.846 2.131
1.916 -1.481 2.307
0.119 -2.499 2.107
0.77 -1.662 1.233
0.064 -2.164 1.215
1.061 -1.813 0.337
0.142 -2.466 0.313
-0.782 -1.983 1.207
1.48 -1.078 0.031
1.205 -1.217 1.373
1.436 -0.812 1.205
2.335 -0.746 2.002
1.639 -0.712 -0.547
1.697 -0.118 0.66
1.842 0.216 0.134
1.488 -1.753 -1.343
2.201 -0.141 -1.444
2.057 -1.14 -2.207
0.547 -2.053 -2.217
1.154 -1.428 -3.046
-0.548 -1.409 -2.576
0.104 -0.811 -3.39
-0.822 -1.287 -2.506
-0.336 -0.591 -3.197
-0.616 -0.466 -3.125
-0.988 -0.705 -2.664
0.101 0.716 -4.098
0.516 0.418 -4.238
-0.398 1.946 -3.588
0.377 1.347 -4.4
0.028 3.029 -3.665
0.9 3.106 -3.671
0.117 1.987 -4.134
0.819 3.383 -2.845
1.749 2.404 -3.353
0.699 3.415 -2.782
1.123 2.627 -2.01
2.133 1.624 -1.992
1.668 2.681 -2.526
2.042 0.907 -1.262
2.428 1.273 -2.257
2.342 0.599 -1.57
1.976 0.918 0.014
1.83 1.363 -3.817
1.103 1.869 -4.167
0.989 2.064 -4.14
1.863 2.209 -3.379
1.884 1.434 1.198
2.541 0.959 2.592
1.842 1.579 2.299
1.814 2.002 3.263
2.513 1.382 3.555
1.359 1.937 4.21
2.058 1.316 4.502
0.651 1.408 4.781
1.35 0.788 5.074
0.82 0.891 4.947
2.194 2.159 -2.516
-3.504 2.232 0.843
-3.504 1.707 -0.068
-3.94 1.181 0.843
-2.634 -1.288 1.367
0.675 3.275 -0.086
-1.198 3.606 3.478
-1.198 4.012 2.497
-2.179 3.606 2.497
-2.876 1.51 4.286
-0.744 -2.552 4.317
-0.744 -1.685 4.947
-1.656 -1.685 4.225
-0.744 -2.884 3.297
0.384 -2.884 3.297
0.438 -2.808 -0.834
-0.69 -2.808 -0.834
-0.69 -2.476 -1.854
1.35 -2.145 -0.834
0.799 2.522 4.049
3.668 -0.309 3.703
3.32 0.763 3.703
3.32 0.227 4.631
3.32 -0.845 4.631
3.32 -1.381 3.703
3.32 -0.845 2.775
3.32 0.227 2.775
2.408 0.227 5.353
2.408 -0.845 5.353
2.408 -1.712 4.723
2.923 0.206 -2.769
2.606 -0.584 -3.343
2.606 0.508 -3.698
1.775 -1.279 -3.309
1.775 -0.584 -4.137
0.749 -0.584 -4.137
0.3255 3.376 -2.8915
0.7995 3.2605 -3.2265
0.247 1.667 -4.267
-0.01 3.183 -3.333
0.553 2.0255 -4.137
0.683 1.7055 -4.27
0.13875 3.3565 -2.94625
0.5625 3.31825 -3.059
0.61275 3.241 -3.28125
0.37575 3.29875 -3.11375
0.189 3.27925 -3.1685
0.227 3.12525 -3.5005
0.49425 3.269875 -3.1975
0.519375 3.23125 -3.308625
0.400875 3.260125 -3.224875
0.756375 3.1735 -3.476125
0.663 3.16375 -3.5035
0.5635 3.115625 -3.58575
0.3265 3.173375 -3.41825
1.7085 2.5425 -2.9395
1.931 2.42 -2.521
0.7735 2.6105 3.1625
1.281 2.3505 2.7695
1.3065 2.262 3.656
1.9715 2.2815 -2.9345
0.460125 3.2456875 -3.26675
0.4726875 3.226375 -3.3223125
0.4134375 3.2408125 -3.2804375
0.426 3.2215 -3.336
2.012 1.761 -3.1665
2.0285 2.184 -2.9475
1.8465 1.786 -3.598
-0.18 -2.718 3.807
-0.0175 -2.375 4.406
0.5465 -2.541 3.896
2.864 -1.5465 4.213
2.6345 -1.7465 3.576
2.1785 -1.912 4.086
0.37625 3.1974375 -3.377125
0.3075 3.250375 -3.25225
0.25775 3.2263125 -3.293375

CELLS 454 1816
3 0 1 2
3 2 1 3
3 1 4 5
3 5 4 6
3 4 7 8
3 8 7 9
3 7 10 11
3 11 10 12
3 10 13 14
3 14 13 15
3 13 16 17
3 17 16 18
3 16 19 20
3 20 19 21
3 19 22 23
3 23 22 24
3 22 0 25
3 25 0 26
3 25 27 24
3 24 27 28
3 27 26 29
3 29 26 2
3 29 30 28
3 28 30 31
3 30 32 33
3 33 32 34
3 32 35 36
3 36 35 37
3 35 3 38
3 38 3 5
3 38 39 37
3 37 39 40
3 39 6 41
3 41 6 8
3 41 42 40
3 40 42 43
3 42 44 45
3 45 44 46
3 44 47 48
3 48 47 49
3 47 9 50
3 50 9 11
3 50 51 49
3 49 51 52
3 51 12 53
3 53 12 14
3 53 54 52
3 52 54 55
3 54 56 57
3 57 56 58
3 57 58 59
3 56 60 61
3 61 60 62
3 60 63 64
3 64 63 65
3 63 66 67
3 67 66 68
3 66 15 69
3 69 15 17
3 69 70 68
3 68 70 71
3 70 72 73
3 73 72 74
3 72 18 74
3 74 18 20
3 73 75 71
3 71 75 76
3 75 77 78
3 78 77 79
3 77 21 79
3 79 21 23
3 78 80 76
3 76 80 81
3 80 82 83
3 83 82 84
3 82 85 86
3 86 85 87
3 85 31 87
3 87 31 33
3 86 88 84
3 84 88 89
3 88 90 91
3 91 90 92
3 90 93 92
3 92 93 94
3 93 95 94
3 94 95 96
3 95 97 98
3 98 97 99
3 98 99 100
3 100 99 101
3 97 34 99
3 99 34 102
3 99 102 101
3 101 102 36
3 100 103 104
3 104 103 105
3 104 105 96
3 96 105 106
3 103 107 108
3 108 107 109
3 107 110 111
3 111 110 112
3 110 113 112
3 112 113 114
3 113 115 114
3 114 115 116
3 115 117 118
3 118 117 119
3 117 43 120
3 120 43 45
3 120 46 119
3 119 46 48
3 118 121 116
3 116 121 122
3 121 123 124
3 123 55 125
3 125 126 127
3 126 128 129
3 128 130 131
3 131 130 61
3 131 132 133
3 132 134 135
3 135 134 136
3 134 62 137
3 137 62 64
3 137 109 136
3 136 109 111
3 138 122 139
3 139 122 124
3 139 140 141
3 141 140 129
3 108 142 106
3 106 142 143
3 142 65 144
3 144 65 67
3 144 145 143
3 143 145 146
3 145 147 146
3 146 147 148
3 147 149 148
3 148 149 150
3 149 81 151
3 151 81 83
3 151 89 150
3 150 89 91
3 26 0 2
3 5 3 1
3 8 6 4
3 11 9 7
3 14 12 10
3 17 15 13
3 20 18 16
3 23 21 19
3 25 24 22
3 29 28 27
3 33 31 30
3 102 34 32
3 102 32 36
3 38 37 35
3 41 40 39
3 45 43 42
3 48 46 44
3 50 49 47
3 53 52 51
3 59 55 57
3 57 55 54
3 61 130 58
3 61 58 56
3 64 62 60
3 67 65 63
3 69 68 66
3 73 71 70
3 78 76 75
3 83 81 80
3 86 84 82
3 91 89 88
3 104 96 95
3 104 95 98
3 104 98 100
3 108 106 105
3 108 105 103
3 111 109 107
3 118 116 115
3 120 119 117
3 124 122 121
3 125 127 123
3 129 140 126
3 131 133 128
3 135 152 132
3 137 136 134
3 144 143 142
3 151 150 149
3 153 154 155
3 155 154 4
3 155 4 0
3 155 0 22
3 155 22 19
3 155 19 153
3 153 19 16
3 153 16 13
3 153 13 154
3 154 13 10
3 154 10 7
3 154 7 4
3 0 4 1
3 3 35 156
3 3 156 2
3 2 156 30
3 2 30 29
3 30 156 32
3 32 156 35
3 6 39 38
3 6 38 5
3 9 47 42
3 9 42 8
3 8 42 41
3 42 47 44
3 12 51 11
3 11 51 50
3 15 66 157
3 15 157 54
3 15 54 53
3 15 53 14
3 54 157 56
3 56 157 60
3 60 157 63
3 63 157 66
3 158 159 160
3 158 160 72
3 158 72 70
3 158 70 159
3 159 70 69
3 159 69 17
3 159 17 160
3 160 17 18
3 160 18 72
3 77 75 74
3 77 74 20
3 77 20 21
3 74 75 73
3 24 28 161
3 24 161 23
3 23 161 79
3 79 161 78
3 78 161 80
3 80 161 82
3 82 161 85
3 85 161 28
3 85 28 31
3 26 27 25
3 162 163 164
3 162 164 165
3 163 90 88
3 163 88 86
3 163 86 87
3 163 87 164
3 164 87 33
3 164 33 165
3 165 33 34
3 165 34 97
3 165 97 166
3 166 97 93
3 93 97 95
3 167 168 169
3 167 169 113
3 167 113 170
3 167 170 100
3 167 100 101
3 167 101 168
3 168 101 36
3 168 36 37
3 168 37 40
3 168 40 43
3 168 43 169
3 169 43 117
3 169 117 115
3 169 115 113
3 100 170 103
3 103 170 107
3 107 170 110
3 110 170 113
3 46 120 45
3 49 52 123
3 49 123 48
3 48 123 121
3 48 121 119
3 119 121 118
3 123 52 55
3 62 134 132
3 62 132 131
3 62 131 61
3 65 142 64
3 64 142 137
3 137 142 109
3 109 142 108
3 67 145 144
3 147 171 149
3 149 171 71
3 149 71 76
3 149 76 81
3 84 89 83
3 83 89 151
3 172 173 174
3 172 174 175
3 172 175 176
3 172 176 177
3 172 177 178
3 172 178 173
3 174 179 180
3 175 174 180
3 175 180 181
3 176 96 177
3 177 96 106
3 177 106 178
3 178 106 143
3 178 143 173
3 173 143 146
3 173 146 148
3 173 148 174
3 174 148 179
3 179 148 150
3 179 150 91
3 179 91 180
3 180 91 92
3 180 92 181
3 182 183 184
3 183 185 186
3 184 183 186
3 186 185 187
3 186 187 122
3 186 122 138
3 186 138 184
3 184 138 135
3 184 135 182
3 182 135 136
3 182 136 111
3 182 111 112
3 182 112 183
3 183 112 185
3 185 112 114
3 185 114 187
3 187 114 116
3 187 116 122
3 130 188 58
3 126 189 128
3 128 189 130
3 127 190 123
3 123 190 124
3 59 191 55
3 55 191 125
3 140 192 126
3 126 192 127
3 127 192 190
3 192 193 190
3 192 140 193
3 190 193 124
3 124 193 139
3 193 140 139
3 188 194 58
3 58 194 59
3 189 195 130
3 130 195 188
3 189 196 195
3 195 197 188
3 188 197 194
3 197 198 194
3 194 198 59
3 59 198 191
3 198 199 191
3 191 199 125
3 196 200 195
3 200 197 195
3 196 201 200
3 200 202 197
3 201 203 204
3 201 196 203
3 204 203 126
3 126 203 189
3 203 196 189
3 197 202 198
3 199 205 125
3 125 205 126
3 126 205 204
3 205 206 204
3 205 199 206
3 133 207 128
3 128 207 129
3 152 208 132
3 132 208 133
3 171 209 71
3 71 209 68
3 68 209 210
3 209 211 210
3 209 171 211
3 210 211 145
3 68 210 67
3 210 145 67
3 145 211 147
3 211 171 147
3 133 208 207
3 208 212 207
3 208 152 212
3 207 212 129
3 129 212 141
3 201 213 200
3 213 202 200
3 201 214 213
3 214 215 213
3 214 216 215
3 213 215 202
3 216 214 204
3 214 201 204
3 202 215 198
3 138 217 135
3 135 217 152
3 152 217 218
3 217 219 218
3 217 138 219
3 218 219 141
3 141 219 139
3 139 219 138
3 166 220 165
3 165 220 162
3 162 220 221
3 220 222 221
3 220 166 222
3 221 222 90
3 162 221 163
3 221 90 163
3 90 222 93
3 93 222 166
3 181 223 175
3 175 223 176
3 176 223 224
3 223 225 224
3 223 181 225
3 224 225 94
3 176 224 96
3 224 94 96
3 94 225 92
3 92 225 181
3 216 226 227
3 226 228 227
3 226 206 228
3 227 228 198
3 198 228 199
3 228 206 199
3 206 226 204
3 204 226 216
3 152 218 212
3 212 218 141
3 216 227 215
3 215 227 198

CELL_TYPES 454
5
5
5
5
5
5
5
5
5
5
5
5
5
5
5
5
5
5
5
5
5
5
5
5
5
5
5
5
5
5
5
5
5
5
5
5
5
5
5
5
5
5
5
5
5
5
5
5
5
5
5
5
5
5
5
5
5
5
5
5
5
5
5
5
5
5
5
5
5
5
5
5
5
5
5
5
5
5
5
5
5
5
5
5
5
5
5
5
5
5
5
5
5
5
5
5
5
5
5
5
5
5
5
5
5
5
5
5
5
5
5
5
5
5
5
5
5
5
5
5
5
5
5
5
5
5
5
5
5
5
5
5
5
5
5
5
5
5
5
5
5
5
5
5
5
5
5
5
5
5
5
5
5
5
5
5
5
5
5
5
5
5
5
5
5
5
5
5
5
5
5
5
5
5
5
5
5
5
5
5
5
5
5
5
5
5
5
5
5
5
5
5
5
5
5
5
5
5
5
5
5
5
5
5
5
5
5
5
5
5
5
5
5
5
5
5
5
5
5
5
5
5
5
5
5
5
5
5
5
5
5
5
5
5
5
5
5
5
5
5
5
5
5
5
5
5
5
5
5
5
5
5
5
5
5
5
5
5
5
5
5
5
5
5
5
5
5
5
5
5
5
5
5
5
5
5
5
5
5
5
5
5
5
5
5
5
5
5
5
5
5
5
5
5
5
5
5
5
5
5
5
5
5
5
5
5
5
5
5
5
5
5
5
5
5
5
5
5
5
5
5
5
5
5
5
5
5
5
5
5
5
5
5
5
5
5
5
5
5
5
5
5
5
5
5
5
5
5
5
5
5
5
5
5
5
5
5
5
5
5
5
5
5
5
5
5
5
5
5
5
5
5
5
5
5
5
5
5
5
5
5
5
5
5
5
5
5
5
5
5
5
5
5
5
5
5
5
5
5
5
5
5
5
5
5
5
5
5
5
5
5
5
5
5
5
5
5
5
5
5
5
5
5
5
5
5
5
5
5
5
5
5
5
5
5
5
5
5
5
5
5
5
5
5
5
5
5
5
5
5
5
5
5
5

CELL_DATA 454
SCALARS cell_data_0 double
LOOKUP_TABLE default
1.21582499198e-06
4.14458084549e-06
1.47021124577e-06
2.31877857779e-06
9.92879125454e-06
2.21661351573e-05
3.16099371228e-06
2.65477380352e-06
3.2861371876e-06
2.14886661045e-06
2.86918573676e-06
2.26714322534e-07
2.70949319269e-07
1.71578387746e-06
6.1683436061e-08
1.34800159157e-06
2.50347102929e-07
5.85008341435e-07
7.37032089203e-07
1.48833632526e-06
1.25698219983e-06
2.60889176507e-07
5.81846435376e-07
1.32943114414e-05
7.31009138128e-06
6.04567376486e-05
2.26617858136e-06
6.73620786201e-06
3.97334312091e-07
2.81750816771e-06
1.20536833381e-06
3.44938007921e-06
5.73282103056e-06
1.5723510926e-06
1.62889413501e-06
2.23189254705e-05
7.11792229565e-06
7.12054461936e-06
1.34156351289e-05
8.87284037906e-06
9.74235281621e-06
1.0234757032e-06
2.46929447267e-06
2.23876103182e-07
3.8762439443e-07
3.93636272017e-06
3.546033293e-06
6.19933386553e-06
5.12423912109e-06
2.34942240409e-06
8.9219026679e-06
1.38654383447e-06
1.19495409001e-05
5.92622451355e-06
6.19270819353e-06
4.55543513218e-06
4.62876254594e-06
2.21472299116e-06
1.92676005645e-06
1.20821434557e-06
2.0739000362e-05
1.32722914387e-06
1.9217952956e-07
1.20758608857e-06
1.06640772215e-06
1.09893109224e-06
1.02192564092e-06
7.76272317643e-07
2.03177355e-06
5.35630075837e-07
2.32376977825e-07
1.78758621935e-07
2.88139963683e-06
4.66770871556e-06
3.48744950684e-06
4.63626524733e-06
5.29440766213e-06
3.02874740073e-05
2.08044998866e-05
3.30858736088e-07
1.68407489902e-06
1.28535919742e-05
2.32891800843e-05
1.80182912864e-05
2.87557912308e-05
3.5134471652e-05
2.07022246922e-05
1.34862283328e-05
8.3074851598e-06
1.36059428468e-05
1.18821638678e-05
4.51244525595e-06
3.19009287968e-06
5.7321418758e-07
5.52195520521e-06
4.26571565076e-06
6.24278347133e-09
1.70377295542e-06
8.47179879094e-06
3.07696566341e-06
7.06991087643e-06
7.51991940068e-07
4.99326071979e-06
9.22174767399e-06
6.78003006296e-06
4.26130743772e-06
1.22945469595e-05
1.55290607982e-06
6.38090500104e-08
9.88581277664e-08
2.4445614342e-07
8.36098897831e-07
4.96432307823e-06
7.16364355797e-06
6.46632337717e-07
6.11172218351e-05
3.71754327019e-06
5.89461322596e-05
8.30142021617e-05
3.80464838199e-06
6.50855432734e-06
9.0928010691e-05
3.04012403485e-06
1.88854268665e-06
1.01201118498e-05
7.31151492912e-06
4.32764727417e-06
1.85457806864e-05
1.19976481669e-05
0.000123537964109
1.30712351788e-05
3.25847432862e-05
2.50366527911e-05
1.26562533885e-06
1.50317020668e-05
4.44492137125e-06
1.11401036693e-05
7.77285965149e-05
4.47785160942e-05
4.0297548563e-05
1.05276769068e-05
1.71386592759e-05
1.84995965178e-06
2.29955989401e-07
1.7177994626e-06
2.90136382898e-06
1.39439618442e-06
6.35199621606e-06
8.42824306013e-06
9.58421475864e-06
3.78302930966e-06
9.64801200369e-06
1.93065293341e-06
2.94955844913e-06
1.39791120221e-06
9.48175741147e-07
2.43466242861e-05
8.51991998112e-07
6.23634825835e-06
5.22210436022e-06
1.0755701919e-06
4.4196433081e-06
4.4988451649e-06
3.83990998419e-06
6.05526081918e-06
1.74027033848e-06
4.93442398915e-06
3.86573046344e-06
2.17918372445e-06
7.44855828376e-06
1.91391373978e-06
2.74537481464e-06
9.87123181591e-07
2.26813658588e-07
1.68687169274e-06
1.88020702364e-06
1.98153925141e-06
1.23331500106e-05
1.61121973485e-07
3.69213676911e-06
3.19453746833e-06
3.1468320243e-06
7.71027954255e-06
3.30570532187e-06
3.11647822425e-06
3.23236020595e-05
2.73640344186e-05
1.9461223666e-05
2.83505248982e-05
2.24624490442e-06
1.48008518039e-06
2.22875866987e-05
1.96924751544e-06
1.29687994437e-06
3.10620838505e-06
1.66250697148e-06
1.53795005753e-06
2.8448830541e-06
1.56444945238e-06
1.58544646686e-08
4.2447391691e-07
9.50562193553e-07
1.60099735437e-06
2.11139379822e-07
1.22885152438e-05
6.71382094546e-07
1.11797964441e-06
3.14120228304e-07
3.67051116048e-06
3.23758954503e-08
7.41848445053e-06
3.67419233621e-06
2.52996972881e-06
1.01603878151e-07
2.60575548494e-05
3.64966413967e-05
1.58282337816e-06
8.80531681451e-08
1.6501783609e-06
1.33820690621e-05
8.08648870576e-06
7.67111311267e-06
5.85552146653e-07
2.69451830838e-06
3.61410631073e-06
2.98781823166e-06
4.17866886095e-06
2.64680588015e-06
1.31198484803e-06
1.99108367688e-06
2.2319335183e-06
2.45574801932e-06
7.18588810703e-07
7.05536417485e-06
3.02545470699e-06
7.83971635083e-07
3.19882723012e-07
2.30916036263e-07
2.47364192516e-07
3.56858349721e-06
2.32359444897e-06
5.6784092444e-07
4.68987991683e-06
9.31310233715e-08
7.41411529723e-07
1.33950843328e-06
3.25896108813e-06
3.50353800503e-06
6.8609597366e-06
2.56083418359e-06
8.02098717163e-07
1.88238374368e-05
5.01063518151e-05
7.04722303632e-06
7.8553243588e-06
7.58118280201e-06
1.70123682385e-05
1.22383170496e-05
7.2022977416e-05
3.39286735706e-05
3.43724170082e-05
2.47463112472e-05
4.3669672319e-07
1.20182185132e-05
1.85837106225e-06
5.28609328996e-06
1.12262462231e-05
9.4998584851e-06
1.93935137867e-06
9.53106322513e-06
3.21377610222e-06
5.90922101554e-06
3.26697720174e-06
1.70789715695e-05
1.7354860273e-06
4.83123567726e-06
2.39795460658e-06
1.17812312556e-05
2.8975123414e-06
5.70769058141e-06
1.04688800878e-06
2.41491531178e-06
1.37767104111e-05
7.40572470748e-06
1.74213888134e-06
2.90335003155e-05
2.22782867724e-07
1.49890887237e-06
1.69738674454e-05
8.91532509035e-06
3.60573429362e-06
2.72492183592e-06
6.1802188193e-06
2.43378371557e-07
6.32285793658e-06
3.18675861074e-06
0.000116156140838
3.34511092161e-05
6.19703329433e-06
3.77990789972e-06
4.60736612639e-07
7.33116108322e-07
2.68796282268e-06
6.62583050898e-05
1.64038490269e-05
1.81372814423e-05
9.30695031199e-06
2.80889505613e-05
5.45544651187e-05
5.52949765087e-06
8.70913917359e-06
5.32880133296e-06
8.23953109194e-06
4.49150883836e-06
7.92218650083e-06
3.76784551407e-06
1.06464824609e-05
7.33155829478e-05
0.000140975070827
0.000131277449288
2.25729347022e-06
2.00588521973e-05
3.38350588342e-06
3.48187635971e-06
1.11230785215e-05
1.77686289396e-05
8.79210465055e-06
5.20368450586e-06
3.8779423952e-06
5.20026214262e-06
1.18822009071e-05
7.92264884985e-06
5.41223167284e-06
9.63650812547e-06
3.80859030136e-06
3.15498533293e-06
6.47659416408e-06
1.77013417426e-05
2.51504333916e-06
3.0716827592e-06
1.4933855635e-06
7.98507078023e-06
7.30880869417e-06
3.72118638118e-06
5.1748083311e-06
9.39736333944e-06
1.01071448113e-05
3.32730631343e-05
1.78992927951e-05
1.76239775767e-05
3.24022871124e-07
3.51645090205e-05
4.48278947974e-05
2.95494259087e-05
6.3587509352e-05
1.76991821726e-05
5.23011028774e-05
3.41314238888e-05
4.05840537938e-05
7.56391734459e-06
4.80182671569e-07
9.88162523918e-07
1.06188339971e-05
7.13433085533e-06
3.11268114077e-05
3.00346374997e-06
2.34165329168e-05
3.12614084625e-06
6.00738005593e-06
3.31569121971e-05
3.57958938925e-06
5.53534323747e-05
7.33509015015e-05
3.68217272459e-05
3.3698889723e-05
4.74359387943e-05
5.49623246314e-05
3.64294738606e-05
1.80113381065e-05
1.02213950592e-05
4.34354241785e-05
7.51247407972e-06
1.58453801467e-05
2.00892529625e-05
5.25036296743e-05
1.84069375255e-05
6.5979533748e-05
1.63536956964e-05
3.94301136191e-05
9.81608352161e-06
1.18961071049e-05
5.33060690641e-06
3.94824616849e-05
4.99405430945e-05
2.39882775831e-05
4.14821954991e-05
4.55811526065e-05
8.88073884396e-07
1.85131869908e-07
1.99385840952e-05
2.29693950334e-05
7.77303176328e-05
3.85744362516e-05
1.55803142971e-05
2.52744226179e-05
9.25085045391e-05
3.59853067552e-05
8.73831944167e-05
8.60728894547e-05
8.08134872235e-05
4.82089713109e-05
4.29503970357e-06
1.39854721202e-05
2.69209293614e-05
1.97514614909e-05
4.322027779e-05
2.86881292213e-05
9.26937353524e-06
3.77217439587e-06
1.1961190658e-05
1.89264039017e-05
1.46851546294e-05
4.01727651723e-07
2.37918742287e-05
1.52574134447e-05
4.05918483735e-05
2.15336007826e-05
1.64872527298e-05
1.04226974217e-05
9.51443447244e-06
2.75486011059e-06
1.79689275777e-05
6.51785044033e-08
1.77400500593e-05
9.40231335405e-06
4.49040387947e-05
6.99681195031e-06
3.65990702981e-06
2.38378919706e-05
5.96233148595e-06
3.84854701483e-06
3.42975468073e-05
2.04036877449e-05
3.19902695554e-05
2.48052580608e-05
1.211913849e-05
1.4092708501e-05
4.6200618955e-06
7.40410113939e-06
8.93166816061e-05
1.74253263873e-05
1.62797225989e-05
1.53273065707e-05
1.42673905268e-05

