# vtk DataFile Version 3.0
File Name: Molecule/arg/arg_0.5-2.vtk
ASCII
DATASET UNSTRUCTURED_GRID
FIELD FieldData 1
TIME 1 1 double
0.0
POINTS 152 double
-3.403 0.327 1.604
-2.971 0.024 0.066
-2.981 -0.361 1.858
-2.549 -0.664 0.32
-2.984 0.046 0.042
-2.2 -0.483 -0.862
-2.216 -0.458 -0.889
-2.776 1.74 -0.497
-2.39 -0.269 -1.153
-2.211 1.177 -1.613
-2.622 1.932 -0.429
-1.982 1.439 -1.492
-1.81 1.654 -1.416
-2.495 2.657 0.67
-1.615 2.438 -0.879
-1.488 3.163 0.22
-3.186 2.284 1.521
-1.863 3.333 1.507
-2.53 2.972 2.328
-3.419 1.801 1.788
-2.717 2.558 2.345
-2.979 2.017 2.644
-3.408 0.559 1.798
-3.107 1.793 3.017
-3.095 0.593 3.027
-3.105 0.348 2.085
-3.1 0.088 1.867
-2.97 0.105 2.152
-2.978 0.383 3.085
-2.865 -0.346 2.113
-2.52 -0.7 2.425
-2.645 0.041 3.387
-1.592 -1.721 1.268
-2.003 -1.142 3.367
-0.984 -2.263 2.097
-2.487 -0.785 0.321
-0.96 -2.23 0.303
-1.943 -1.202 -0.738
-2.131 -0.618 -0.861
-2.114 -0.682 -1.181
-1.927 -1.264 -1.052
-2.312 -0.441 -1.376
-2.121 -0.506 -1.916
-1.682 -1.348 -1.746
-1.897 0.192 -2.527
-1.864 -0.768 -1.888
-1.57 0.147 -2.691
-2.011 1.039 -2.18
-1.198 0.386 -3.152
-1.348 1.496 -2.696
-1.72 1.257 -2.235
-1.479 1.817 -1.75
-1.107 2.057 -2.211
-1.319 2.584 -1.178
-0.816 3.013 -1.267
-0.543 2.537 -2.312
0.466 3.148 -0.891
-0.048 3.337 -3.001
1.057 2.557 -0.305
0.892 2.689 -1.891
1.553 2.026 -1.234
0.737 2.845 0.68
1.539 1.918 0.039
1.22 2.206 1.024
0.406 3.093 0.833
1.112 2.426 2.108
0.748 2.699 2.276
-0.034 3.266 2.099
-0.687 3.194 3.654
0.006 2.617 4.044
-1.995 3.111 3.523
-0.58 2.815 3.881
-2.096 2.719 3.73
-1.061 1.806 4.483
-0.466 1.628 4.634
-2.128 2.66 3.763
-1.452 1.611 4.604
-2.373 2.347 3.982
-1.464 1.095 4.666
-0.48 1.041 4.705
-1.655 0.731 4.634
-0.333 0.517 4.869
-0.555 0.096 4.831
-0.878 -0.357 4.785
0.164 -1.171 5.088
0.507 -0.734 5.141
0.93 -2.454 3.923
1.043 -0.806 5.264
1.809 -2.089 4.099
1.037 -1.846 2.131
1.916 -1.481 2.307
1.061 -1.813 0.337
1.48 -1.078 0.031
2.335 -0.746 2.002
1.639 -0.712 -0.547
1.697 -0.118 0.66
1.842 0.216 0.134
1.085 -2.024 -1.812
2.201 -0.141 -1.444
1.67 -1.4 -2.657
-0.548 -1.409 -2.576
0.104 -0.811 -3.39
-0.822 -1.287 -2.506
-0.336 -0.591 -3.197
-0.616 -0.466 -3.125
-0.988 -0.705 -2.664
0.101 0.716 -4.098
0.516 0.418 -4.238
-0.398 1.946 -3.588
0.377 1.347 -4.4
0.117 1.987 -4.134
0.028 3.029 -3.665
0.9 3.106 -3.671
0.989 2.064 -4.14
0.819 3.383 -2.845
1.749 2.404 -3.353
1.668 2.681 -2.526
0.699 3.415 -2.782
1.123 2.627 -2.01
2.133 1.624 -1.992
2.194 2.159 -2.516
2.042 0.907 -1.262
2.428 1.273 -2.257
2.342 0.599 -1.57
1.976 0.918 0.014
1.83 1.363 -3.817
1.863 2.209 -3.379
1.103 1.869 -4.167
1.884 1.434 1.198
2.541 0.959 2.592
1.842 1.579 2.299
0.651 1.408 4.781
0.82 0.891 4.947
1.35 0.788 5.074
-3.94 1.181 0.843
-1.891 3.826 2.497
-2.589 1.578 4.495
-1.092 -1.939 4.665
0.786 -2.653 -0.834
3.668 -0.309 3.703
2.756 0.481 5.071
2.756 -1.099 5.071
2.093 -0.513 -4.015
1.2465 1.4935 3.54
0.924 2.098 3.1715
0.3285 2.0125 4.4125
0.3255 3.376 -2.8915
1.9455 0.8735 3.833
0.7995 3.2605 -3.2265
0.426 3.2215 -3.336
2.6485 0.72 3.8315
2.053 0.6345 5.0725

CELLS 300 1200
3 0 1 2
3 2 1 3
3 1 4 5
3 5 4 6
3 4 7 8
3 8 7 9
3 7 10 11
3 11 10 12
3 10 13 14
3 14 13 15
3 13 16 17
3 17 16 18
3 16 19 20
3 20 19 21
3 19 22 23
3 23 22 24
3 22 0 25
3 25 0 26
3 25 27 24
3 24 27 28
3 27 26 29
3 29 26 2
3 29 30 28
3 28 30 31
3 30 32 33
3 33 32 34
3 32 35 36
3 36 35 37
3 35 3 38
3 38 3 5
3 38 39 37
3 37 39 40
3 39 6 41
3 41 6 8
3 41 42 40
3 40 42 43
3 42 44 45
3 45 44 46
3 44 47 48
3 48 47 49
3 47 9 50
3 50 9 11
3 50 51 49
3 49 51 52
3 51 12 53
3 53 12 14
3 53 54 52
3 52 54 55
3 54 56 57
3 56 58 59
3 59 58 60
3 58 61 62
3 62 61 63
3 61 64 65
3 65 64 66
3 64 15 67
3 67 15 17
3 67 68 66
3 66 68 69
3 68 70 71
3 71 70 72
3 70 18 72
3 72 18 20
3 71 73 69
3 69 73 74
3 73 75 76
3 76 75 77
3 75 21 77
3 77 21 23
3 76 78 74
3 74 78 79
3 78 80 81
3 81 80 82
3 80 31 83
3 83 31 33
3 83 84 82
3 82 84 85
3 84 86 87
3 87 86 88
3 86 89 88
3 88 89 90
3 89 34 91
3 91 34 36
3 91 92 90
3 90 92 93
3 92 94 95
3 95 94 96
3 94 97 98
3 98 97 99
3 97 100 99
3 99 100 101
3 100 102 103
3 103 102 104
3 102 43 105
3 105 43 45
3 105 46 104
3 104 46 48
3 103 106 101
3 101 106 107
3 106 108 109
3 109 108 110
3 108 55 111
3 111 55 57
3 111 112 110
3 110 112 113
3 112 114 115
3 115 114 116
3 114 117 118
3 118 117 59
3 118 119 116
3 116 119 120
3 119 121 122
3 122 121 123
3 121 60 124
3 124 60 62
3 124 96 123
3 123 96 98
3 122 125 120
3 120 125 126
3 125 107 127
3 127 107 109
3 127 113 126
3 126 113 115
3 95 128 93
3 93 128 129
3 128 63 130
3 130 63 65
3 131 79 132
3 132 79 81
3 132 85 133
3 133 85 87
3 26 0 2
3 5 3 1
3 8 6 4
3 11 9 7
3 14 12 10
3 17 15 13
3 20 18 16
3 23 21 19
3 25 24 22
3 29 28 27
3 33 31 30
3 36 34 32
3 38 37 35
3 41 40 39
3 45 43 42
3 48 46 44
3 50 49 47
3 53 52 51
3 57 55 54
3 59 117 56
3 62 60 58
3 65 63 61
3 67 66 64
3 71 69 68
3 76 74 73
3 81 79 78
3 83 82 80
3 87 85 84
3 91 90 89
3 95 93 92
3 98 96 94
3 103 101 100
3 105 104 102
3 109 107 106
3 111 110 108
3 115 113 112
3 118 116 114
3 122 120 119
3 124 123 121
3 127 126 125
3 130 129 128
3 132 133 131
3 0 22 134
3 0 134 4
3 0 4 1
3 4 134 7
3 7 134 13
3 7 13 10
3 13 134 16
3 16 134 19
3 19 134 22
3 3 35 2
3 2 35 32
3 2 32 30
3 2 30 29
3 6 39 38
3 6 38 5
3 9 47 42
3 9 42 8
3 8 42 41
3 42 47 44
3 12 51 11
3 11 51 50
3 15 64 56
3 15 56 54
3 15 54 53
3 15 53 14
3 56 64 61
3 56 61 58
3 70 68 135
3 70 135 18
3 18 135 17
3 17 135 67
3 67 135 68
3 75 73 72
3 75 72 20
3 75 20 21
3 72 73 71
3 24 28 136
3 24 136 23
3 23 136 77
3 77 136 76
3 76 136 78
3 78 136 80
3 80 136 31
3 31 136 28
3 26 27 25
3 34 89 86
3 34 86 137
3 34 137 33
3 33 137 83
3 83 137 84
3 84 137 86
3 37 40 36
3 36 40 43
3 36 43 138
3 36 138 91
3 91 138 92
3 92 138 97
3 92 97 94
3 97 138 100
3 100 138 43
3 100 43 102
3 46 105 45
3 49 52 108
3 49 108 48
3 48 108 106
3 48 106 104
3 104 106 103
3 108 52 55
3 60 121 119
3 60 119 118
3 60 118 59
3 63 128 62
3 62 128 124
3 124 128 96
3 96 128 95
3 66 69 65
3 131 74 79
3 82 85 81
3 81 85 132
3 139 140 141
3 139 141 88
3 139 88 90
3 139 90 93
3 139 93 129
3 140 87 141
3 141 87 88
3 101 107 142
3 101 142 99
3 99 142 98
3 98 142 123
3 123 142 122
3 122 142 125
3 125 142 107
3 110 113 109
3 109 113 127
3 116 120 115
3 115 120 126
3 130 143 129
3 143 131 129
3 69 144 65
3 65 144 130
3 130 144 143
3 144 145 143
3 144 69 145
3 143 145 131
3 131 145 74
3 145 69 74
3 117 146 56
3 56 146 57
3 133 147 131
3 131 147 129
3 112 148 114
3 114 148 117
3 117 148 146
3 148 149 146
3 148 112 149
3 146 149 57
3 57 149 111
3 149 112 111
3 129 150 139
3 139 150 140
3 140 150 151
3 150 147 151
3 150 129 147
3 151 147 133
3 140 151 87
3 151 133 87

CELL_TYPES 300
5
5
5
5
5
5
5
5
5
5
5
5
5
5
5
5
5
5
5
5
5
5
5
5
5
5
5
5
5
5
5
5
5
5
5
5
5
5
5
5
5
5
5
5
5
5
5
5
5
5
5
5
5
5
5
5
5
5
5
5
5
5
5
5
5
5
5
5
5
5
5
5
5
5
5
5
5
5
5
5
5
5
5
5
5
5
5
5
5
5
5
5
5
5
5
5
5
5
5
5
5
5
5
5
5
5
5
5
5
5
5
5
5
5
5
5
5
5
5
5
5
5
5
5
5
5
5
5
5
5
5
5
5
5
5
5
5
5
5
5
5
5
5
5
5
5
5
5
5
5
5
5
5
5
5
5
5
5
5
5
5
5
5
5
5
5
5
5
5
5
5
5
5
5
5
5
5
5
5
5
5
5
5
5
5
5
5
5
5
5
5
5
5
5
5
5
5
5
5
5
5
5
5
5
5
5
5
5
5
5
5
5
5
5
5
5
5
5
5
5
5
5
5
5
5
5
5
5
5
5
5
5
5
5
5
5
5
5
5
5
5
5
5
5
5
5
5
5
5
5
5
5
5
5
5
5
5
5
5
5
5
5
5
5
5
5
5
5
5
5
5
5
5
5
5
5
5
5
5
5
5
5
5
5
5
5
5
5
5
5
5
5
5
5
5
5
5
5
5
5

CELL_DATA 300
SCALARS cell_data_0 double
LOOKUP_TABLE default
1.55428524865e-07
3.93279586972e-07
1.43407052713e-06
2.242785634e-06
1.67657264221e-05
2.80148497696e-05
3.46105039391e-06
4.7108157895e-06
7.29310973361e-07
1.61999888428e-06
2.04623422029e-06
1.02857708958e-06
1.57232701132e-07
1.38147245996e-06
2.74604879153e-06
7.95648081442e-07
9.14026772273e-08
1.11062395218e-06
5.37765073478e-07
1.24741088816e-06
1.79956472475e-06
6.74531138322e-07
3.3196589776e-06
6.33543332345e-06
2.56217133021e-05
0.000137483827315
8.80665809014e-06
9.5964485492e-06
4.19128970976e-07
1.50965984949e-06
2.910685759e-06
7.65242038731e-07
4.01550071808e-06
1.37352554981e-06
4.59898414074e-06
2.43975030668e-05
5.26587571406e-06
1.01039150753e-05
1.47581323505e-05
1.28131720986e-05
8.86664099567e-06
2.19564543221e-06
6.78313054092e-07
4.68211079823e-06
1.76669564836e-06
3.56419977389e-06
6.33676260825e-06
3.53936865208e-05
0.000116699393381
1.83115881378e-06
1.42199393861e-05
1.00817551041e-05
3.67863688282e-05
7.26694842258e-05
6.83201246615e-05
4.24863292936e-06
1.76657396351e-05
5.12246291215e-05
0.0001412652318
1.79020579234e-05
7.03463659631e-06
8.83770124824e-06
8.94833071314e-06
4.89476649651e-05
1.07225531507e-05
7.05240507689e-07
2.23181484375e-06
2.12114910064e-06
1.23622683996e-06
2.14981998744e-05
2.62187139763e-05
7.0440648636e-06
1.4096013711e-05
4.95927521238e-05
6.58016200288e-05
4.90196747247e-05
8.09351998068e-06
0.000102932620082
0.000668467308049
0.000742140227658
2.87861039766e-05
0.00011802624701
1.45915499448e-05
8.33854313791e-05
3.18218877345e-05
4.16101806412e-06
1.48858390631e-05
1.55528517181e-05
2.95855570723e-05
1.20275112534e-05
1.23384949446e-05
2.19473860971e-07
3.74166106986e-06
4.2800375304e-07
7.39505080178e-06
2.31219063342e-06
1.00424908468e-05
3.95789802265e-07
1.29239578374e-05
4.32426358963e-05
7.22558043978e-05
0.000152919490623
0.000255303749067
0.000271570382544
6.69108409023e-05
0.000174233324253
4.46121224731e-05
8.06459578717e-06
3.05651496542e-06
5.12989283909e-05
7.28382899771e-05
1.19266611326e-05
1.52355408597e-05
2.47757027234e-05
5.4439553766e-06
1.60267765587e-05
6.02956014255e-05
0.000101287688023
0.000124216871189
8.7472721074e-06
1.01763230536e-05
6.90538316316e-05
6.39088070923e-05
9.88134813773e-06
1.66246555448e-05
2.63742752738e-05
0.000134797346066
1.97532887418e-05
1.50284639172e-05
5.67726457785e-05
8.8200493433e-06
1.12517576593e-06
6.86052635631e-06
6.19356477399e-06
1.09228197079e-05
1.06608709919e-06
1.0241701859e-05
2.1108940879e-06
1.85814374104e-06
1.37410760258e-06
1.79541659695e-07
2.74733083263e-05
2.16066603836e-05
4.21074315153e-06
1.60612870152e-06
5.40971065304e-06
4.95486522086e-06
3.8527491001e-06
6.96330929028e-07
3.18987980794e-05
3.65785936227e-05
7.34481023605e-06
7.09522598909e-05
3.92852750275e-05
1.457290645e-05
1.43333140171e-05
1.78910598838e-05
1.68403369773e-05
3.29414785019e-05
0.000101273397869
7.19535052453e-06
1.37424065117e-06
2.42902952264e-06
4.06768534475e-06
6.58483907648e-05
7.13457098892e-05
0.000125914830832
8.53073657492e-05
7.4355396233e-05
5.31561256734e-06
8.77696189575e-05
5.04678062658e-05
9.71937401176e-07
1.54142605172e-06
3.73238298059e-07
4.60112127037e-07
1.36138618195e-05
1.27505569625e-05
1.18668174418e-06
3.68479221343e-06
7.09309080602e-07
2.29204579503e-07
8.18796710184e-07
1.02428640004e-05
1.68188775473e-05
4.63671230486e-07
1.6758598043e-06
9.61986697918e-08
2.79166014206e-05
3.96745667585e-05
1.97593519987e-06
2.292345902e-08
1.34551304395e-06
1.27338074287e-05
1.11996967507e-05
4.15676874718e-06
1.55353299388e-06
4.5421319955e-06
2.02376658715e-05
1.150940667e-05
4.88303282865e-06
1.07238748756e-06
7.10425065355e-06
1.81707972084e-05
9.41167280203e-06
1.11819731398e-07
4.35372748461e-07
2.98973476449e-06
3.65575168193e-05
1.67880470971e-06
2.53528334065e-06
4.23925650581e-06
5.58727914682e-06
1.27936955507e-05
2.64728862258e-06
7.54854218369e-06
5.94540094232e-06
8.87606807188e-07
0.000297151353313
0.000798037925009
3.13178180947e-05
4.05197100376e-05
0.000152392339536
5.48286950614e-05
6.55568042957e-06
4.93262308906e-07
8.1798019425e-05
5.81648299336e-05
3.51071659833e-05
4.06024682517e-05
1.02372304152e-05
2.35256311515e-05
1.24950826315e-05
3.39600952413e-06
2.47802874585e-05
1.11259963156e-05
6.70684482122e-06
6.47086762305e-05
1.07033270054e-05
4.4801828918e-07
1.82295119263e-05
5.66717751684e-07
4.03170022393e-05
2.03097463116e-07
3.55415855554e-05
1.60980276383e-05
1.11119377166e-05
1.1124906612e-05
0.000207081513642
2.99211983349e-05
2.78182225466e-05
3.26587476771e-05
0.000103695968878
0.000582209606064
0.000835736524576
7.24879500149e-05
0.000218555952376
0.000177982440386
1.77371235299e-05
1.20392800253e-05
1.52546223938e-05
1.9782336521e-05
7.02160416541e-05
2.97702431178e-05
5.83361234405e-05
4.82871389092e-05
0.000346398336881
9.06008707466e-05
0.000309561468883
0.000104441233753
0.00015859909246
0.000104518805538
0.000495499421932
0.000262857655523
0.00121817321261
0.000490422350899
0.000328740791854
2.60001843055e-05
7.60012018046e-05
0.000167701446238
1.71227307131e-05
0.00010451881724
6.83061113128e-05
2.56636777623e-05
7.49341759097e-06
1.74633271857e-05
2.59096669664e-05
0.000468664752638
4.83016427197e-05
6.30074159606e-05
0.000498911375226
0.000276617782254
0.000277193448856
0.000443176576819
0.000287261403559
0.000454715088532
0.000804097752789
5.92640167977e-05
0.000231023095578
0.000114091083355

