# vtk DataFile Version 3.0
File Name: Molecule/arg/arg_0.5-4.vtk
ASCII
DATASET UNSTRUCTURED_GRID
FIELD FieldData 1
TIME 1 1 double
0.0
POINTS 164 double
-3.403 0.327 1.604
-2.971 0.024 0.066
-2.981 -0.361 1.858
-2.549 -0.664 0.32
-2.984 0.046 0.042
-2.2 -0.483 -0.862
-2.216 -0.458 -0.889
-2.776 1.74 -0.497
-2.39 -0.269 -1.153
-2.211 1.177 -1.613
-2.622 1.932 -0.429
-1.982 1.439 -1.492
-1.81 1.654 -1.416
-2.495 2.657 0.67
-1.615 2.438 -0.879
-1.488 3.163 0.22
-3.186 2.284 1.521
-1.863 3.333 1.507
-2.53 2.972 2.328
-3.419 1.801 1.788
-2.717 2.558 2.345
-2.979 2.017 2.644
-3.408 0.559 1.798
-3.107 1.793 3.017
-3.095 0.593 3.027
-3.105 0.348 2.085
-3.1 0.088 1.867
-2.97 0.105 2.152
-2.978 0.383 3.085
-2.865 -0.346 2.113
-2.52 -0.7 2.425
-2.645 0.041 3.387
-1.592 -1.721 1.268
-2.003 -1.142 3.367
-0.984 -2.263 2.097
-2.487 -0.785 0.321
-0.96 -2.23 0.303
-1.943 -1.202 -0.738
-2.131 -0.618 -0.861
-2.114 -0.682 -1.181
-1.927 -1.264 -1.052
-2.312 -0.441 -1.376
-2.121 -0.506 -1.916
-1.682 -1.348 -1.746
-1.897 0.192 -2.527
-1.864 -0.768 -1.888
-1.57 0.147 -2.691
-2.011 1.039 -2.18
-1.198 0.386 -3.152
-1.348 1.496 -2.696
-1.72 1.257 -2.235
-1.479 1.817 -1.75
-1.107 2.057 -2.211
-1.319 2.584 -1.178
-0.816 3.013 -1.267
-0.543 2.537 -2.312
0.466 3.148 -0.891
-0.048 3.337 -3.001
1.057 2.557 -0.305
0.892 2.689 -1.891
1.553 2.026 -1.234
0.737 2.845 0.68
1.539 1.918 0.039
1.22 2.206 1.024
0.406 3.093 0.833
1.112 2.426 2.108
0.748 2.699 2.276
-0.034 3.266 2.099
-0.687 3.194 3.654
0.006 2.617 4.044
-1.995 3.111 3.523
-0.58 2.815 3.881
-2.096 2.719 3.73
-1.061 1.806 4.483
-0.466 1.628 4.634
-2.128 2.66 3.763
-1.452 1.611 4.604
-2.373 2.347 3.982
-1.464 1.095 4.666
-0.48 1.041 4.705
-1.655 0.731 4.634
-0.333 0.517 4.869
-0.555 0.096 4.831
-0.878 -0.357 4.785
0.164 -1.171 5.088
0.507 -0.734 5.141
0.93 -2.454 3.923
1.043 -0.806 5.264
1.809 -2.089 4.099
1.037 -1.846 2.131
1.061 -1.813 0.337
1.48 -1.078 0.031
1.916 -1.481 2.307
2.335 -0.746 2.002
1.639 -0.712 -0.547
1.697 -0.118 0.66
1.842 0.216 0.134
1.085 -2.024 -1.812
2.201 -0.141 -1.444
1.67 -1.4 -2.657
-0.548 -1.409 -2.576
0.104 -0.811 -3.39
-0.822 -1.287 -2.506
-0.336 -0.591 -3.197
-0.616 -0.466 -3.125
-0.988 -0.705 -2.664
0.101 0.716 -4.098
0.516 0.418 -4.238
-0.398 1.946 -3.588
0.377 1.347 -4.4
0.117 1.987 -4.134
0.028 3.029 -3.665
0.9 3.106 -3.671
0.989 2.064 -4.14
0.819 3.383 -2.845
1.749 2.404 -3.353
1.668 2.681 -2.526
0.699 3.415 -2.782
1.123 2.627 -2.01
2.133 1.624 -1.992
2.194 2.159 -2.516
2.042 0.907 -1.262
2.428 1.273 -2.257
2.342 0.599 -1.57
1.976 0.918 0.014
1.83 1.363 -3.817
1.863 2.209 -3.379
1.103 1.869 -4.167
1.884 1.434 1.198
2.541 0.959 2.592
1.842 1.579 2.299
0.651 1.408 4.781
0.82 0.891 4.947
1.35 0.788 5.074
-3.94 1.181 0.843
-1.891 3.826 2.497
-2.589 1.578 4.495
-1.092 -1.939 4.665
0.786 -2.653 -0.834
3.668 -0.309 3.703
2.756 0.481 5.071
2.756 -1.099 5.071
2.093 -0.513 -4.015
1.2465 1.4935 3.54
0.924 2.098 3.1715
0.3285 2.0125 4.4125
0.3255 3.376 -2.8915
1.9455 0.8735 3.833
0.7995 3.2605 -3.2265
0.426 3.2215 -3.336
2.6485 0.72 3.8315
2.053 0.6345 5.0725
1.8625 -1.785 3.203
2.7385 -1.199 3.901
2.792 -0.895 3.005
1.54425 1.53625 2.9195
1.383 1.8385 2.73525
1.08525 1.79575 3.35575
1.83575 -1.937 3.651
2.27375 -1.644 4.0
2.3005 -1.492 3.552
1.1535 1.96825 2.953375
1.234125 1.817125 3.0455
1.004625 1.946875 3.263625

CELLS 324 1296
3 0 1 2
3 2 1 3
3 1 4 5
3 5 4 6
3 4 7 8
3 8 7 9
3 7 10 11
3 11 10 12
3 10 13 14
3 14 13 15
3 13 16 17
3 17 16 18
3 16 19 20
3 20 19 21
3 19 22 23
3 23 22 24
3 22 0 25
3 25 0 26
3 25 27 24
3 24 27 28
3 27 26 29
3 29 26 2
3 29 30 28
3 28 30 31
3 30 32 33
3 33 32 34
3 32 35 36
3 36 35 37
3 35 3 38
3 38 3 5
3 38 39 37
3 37 39 40
3 39 6 41
3 41 6 8
3 41 42 40
3 40 42 43
3 42 44 45
3 45 44 46
3 44 47 48
3 48 47 49
3 47 9 50
3 50 9 11
3 50 51 49
3 49 51 52
3 51 12 53
3 53 12 14
3 53 54 52
3 52 54 55
3 54 56 57
3 56 58 59
3 59 58 60
3 58 61 62
3 62 61 63
3 61 64 65
3 65 64 66
3 64 15 67
3 67 15 17
3 67 68 66
3 66 68 69
3 68 70 71
3 71 70 72
3 70 18 72
3 72 18 20
3 71 73 69
3 69 73 74
3 73 75 76
3 76 75 77
3 75 21 77
3 77 21 23
3 76 78 74
3 74 78 79
3 78 80 81
3 81 80 82
3 80 31 83
3 83 31 33
3 83 84 82
3 82 84 85
3 84 86 87
3 87 86 88
3 86 89 88
3 89 34 90
3 90 34 36
3 90 91 92
3 92 91 93
3 91 94 95
3 95 94 96
3 94 97 98
3 98 97 99
3 97 100 99
3 99 100 101
3 100 102 103
3 103 102 104
3 102 43 105
3 105 43 45
3 105 46 104
3 104 46 48
3 103 106 101
3 101 106 107
3 106 108 109
3 109 108 110
3 108 55 111
3 111 55 57
3 111 112 110
3 110 112 113
3 112 114 115
3 115 114 116
3 114 117 118
3 118 117 59
3 118 119 116
3 116 119 120
3 119 121 122
3 122 121 123
3 121 60 124
3 124 60 62
3 124 96 123
3 123 96 98
3 122 125 120
3 120 125 126
3 125 107 127
3 127 107 109
3 127 113 126
3 126 113 115
3 95 128 93
3 93 128 129
3 128 63 130
3 130 63 65
3 131 79 132
3 132 79 81
3 132 85 133
3 133 85 87
3 26 0 2
3 5 3 1
3 8 6 4
3 11 9 7
3 14 12 10
3 17 15 13
3 20 18 16
3 23 21 19
3 25 24 22
3 29 28 27
3 33 31 30
3 36 34 32
3 38 37 35
3 41 40 39
3 45 43 42
3 48 46 44
3 50 49 47
3 53 52 51
3 57 55 54
3 59 117 56
3 62 60 58
3 65 63 61
3 67 66 64
3 71 69 68
3 76 74 73
3 81 79 78
3 83 82 80
3 87 85 84
3 90 92 89
3 95 93 91
3 98 96 94
3 103 101 100
3 105 104 102
3 109 107 106
3 111 110 108
3 115 113 112
3 118 116 114
3 122 120 119
3 124 123 121
3 127 126 125
3 130 129 128
3 132 133 131
3 0 22 134
3 0 134 4
3 0 4 1
3 4 134 7
3 7 134 13
3 7 13 10
3 13 134 16
3 16 134 19
3 19 134 22
3 3 35 2
3 2 35 32
3 2 32 30
3 2 30 29
3 6 39 38
3 6 38 5
3 9 47 42
3 9 42 8
3 8 42 41
3 42 47 44
3 12 51 11
3 11 51 50
3 15 64 56
3 15 56 54
3 15 54 53
3 15 53 14
3 56 64 61
3 56 61 58
3 70 68 135
3 70 135 18
3 18 135 17
3 17 135 67
3 67 135 68
3 75 73 72
3 75 72 20
3 75 20 21
3 72 73 71
3 24 28 136
3 24 136 23
3 23 136 77
3 77 136 76
3 76 136 78
3 78 136 80
3 80 136 31
3 31 136 28
3 26 27 25
3 34 89 86
3 34 86 137
3 34 137 33
3 33 137 83
3 83 137 84
3 84 137 86
3 37 40 36
3 36 40 43
3 36 43 138
3 36 138 90
3 90 138 91
3 91 138 97
3 91 97 94
3 97 138 100
3 100 138 43
3 100 43 102
3 46 105 45
3 49 52 108
3 49 108 48
3 48 108 106
3 48 106 104
3 104 106 103
3 108 52 55
3 60 121 119
3 60 119 118
3 60 118 59
3 63 128 62
3 62 128 124
3 124 128 96
3 96 128 95
3 66 69 65
3 131 74 79
3 82 85 81
3 81 85 132
3 139 140 141
3 139 93 129
3 140 87 141
3 141 87 88
3 101 107 142
3 101 142 99
3 99 142 98
3 98 142 123
3 123 142 122
3 122 142 125
3 125 142 107
3 110 113 109
3 109 113 127
3 116 120 115
3 115 120 126
3 143 131 129
3 69 144 65
3 144 69 145
3 143 145 131
3 131 145 74
3 145 69 74
3 117 146 56
3 56 146 57
3 133 147 131
3 131 147 129
3 112 148 114
3 114 148 117
3 117 148 146
3 148 149 146
3 148 112 149
3 146 149 57
3 57 149 111
3 149 112 111
3 129 150 139
3 139 150 140
3 140 150 151
3 150 147 151
3 150 129 147
3 151 147 133
3 140 151 87
3 151 133 87
3 92 152 89
3 141 153 139
3 139 153 154
3 154 152 92
3 139 154 93
3 154 92 93
3 130 155 129
3 155 143 129
3 65 156 130
3 130 156 155
3 155 157 143
3 143 157 145
3 152 158 89
3 89 158 88
3 88 159 141
3 159 153 141
3 153 160 154
3 160 152 154
3 153 159 160
3 159 158 160
3 159 88 158
3 160 158 152
3 144 161 65
3 161 156 65
3 156 162 155
3 162 157 155
3 156 161 162
3 161 163 162
3 161 144 163
3 162 163 157
3 157 163 145
3 145 163 144

CELL_TYPES 324
5
5
5
5
5
5
5
5
5
5
5
5
5
5
5
5
5
5
5
5
5
5
5
5
5
5
5
5
5
5
5
5
5
5
5
5
5
5
5
5
5
5
5
5
5
5
5
5
5
5
5
5
5
5
5
5
5
5
5
5
5
5
5
5
5
5
5
5
5
5
5
5
5
5
5
5
5
5
5
5
5
5
5
5
5
5
5
5
5
5
5
5
5
5
5
5
5
5
5
5
5
5
5
5
5
5
5
5
5
5
5
5
5
5
5
5
5
5
5
5
5
5
5
5
5
5
5
5
5
5
5
5
5
5
5
5
5
5
5
5
5
5
5
5
5
5
5
5
5
5
5
5
5
5
5
5
5
5
5
5
5
5
5
5
5
5
5
5
5
5
5
5
5
5
5
5
5
5
5
5
5
5
5
5
5
5
5
5
5
5
5
5
5
5
5
5
5
5
5
5
5
5
5
5
5
5
5
5
5
5
5
5
5
5
5
5
5
5
5
5
5
5
5
5
5
5
5
5
5
5
5
5
5
5
5
5
5
5
5
5
5
5
5
5
5
5
5
5
5
5
5
5
5
5
5
5
5
5
5
5
5
5
5
5
5
5
5
5
5
5
5
5
5
5
5
5
5
5
5
5
5
5
5
5
5
5
5
5
5
5
5
5
5
5
5
5
5
5
5
5
5
5
5
5
5
5
5
5
5
5
5
5
5
5
5
5
5
5
5
5
5
5
5
5

CELL_DATA 324
SCALARS cell_data_0 double
LOOKUP_TABLE default
1.21295620489e-07
1.56640413963e-06
1.42549316505e-06
2.21137742669e-06
1.7672488779e-05
2.80898100613e-05
3.2439114774e-06
4.48469492866e-06
6.3771030011e-07
2.87386112117e-06
1.72007383328e-06
1.80687327725e-06
2.12318590564e-07
4.49080476067e-07
2.27588828326e-06
1.144754215e-06
4.31606278744e-08
9.95791350646e-07
7.09454020879e-07
1.29827715598e-06
1.5783283763e-06
9.02237869313e-07
2.57612359356e-06
8.76117869811e-06
4.25004933905e-05
0.000149581412053
2.15673831367e-05
9.90814263953e-06
6.91334272018e-07
9.66000913766e-07
3.2578681992e-06
6.01443733096e-07
4.02857751581e-06
1.31282219942e-06
4.9880754914e-06
2.36166510448e-05
5.81849513625e-06
9.57403852073e-06
1.47854967987e-05
1.23861698122e-05
8.9658109067e-06
2.12032970564e-06
8.36559571674e-07
4.73691213955e-06
2.31249667779e-06
3.40530428597e-06
7.08713079004e-06
3.51067130312e-05
0.000113678524208
5.80125938582e-06
1.90256478594e-05
5.87193077341e-06
1.34924599587e-06
7.6036053251e-06
1.20422034579e-05
2.41869837641e-06
4.153881335e-06
1.02584481751e-05
8.58706410228e-06
1.87004885208e-06
2.14658867034e-06
4.19203882364e-07
1.81784281581e-06
4.25643084183e-06
1.78335626268e-05
4.72037008363e-06
3.80799893532e-07
1.439393386e-07
1.55804815833e-06
9.61289045826e-06
1.12282000421e-05
4.64633076523e-06
1.76059938951e-05
5.16324295654e-05
8.77811583804e-05
5.22345807959e-05
2.38577776156e-05
0.00028784970428
0.000320382610479
0.000233646976126
7.81718346647e-05
8.54866189458e-05
9.30768024397e-05
1.14513757829e-05
6.1153452253e-06
1.72025817347e-05
1.29282506923e-05
2.95739624773e-05
1.18147510587e-05
1.24078159433e-05
6.16957156928e-07
2.47806171077e-06
1.13939303405e-06
6.72359643141e-06
1.7279907598e-06
9.97012091545e-06
2.91432983082e-07
1.26841259979e-05
4.34376121884e-05
7.24627230086e-05
0.000151746620808
0.000255283154734
0.000271278933642
6.66378464547e-05
0.000173870847519
4.38221813669e-05
7.93930467967e-06
3.4176056344e-06
4.98097166873e-05
7.28564659418e-05
1.11001022135e-05
1.4704303709e-05
1.96581177271e-05
7.77163192765e-06
1.62951441302e-05
5.88365216122e-05
0.000101857397333
0.000123907662596
8.7445497869e-06
1.00472986678e-05
6.92012424391e-05
6.36789841534e-05
1.59479138775e-05
9.96674936861e-06
3.2226710527e-05
1.54596084199e-05
5.48374021822e-06
9.59808770548e-06
3.24410274968e-05
1.66157916794e-05
1.21042338181e-06
5.96026986758e-06
6.16114293092e-06
1.08918253121e-05
8.08216510922e-07
8.65071430106e-06
1.4999494041e-06
2.12674343468e-06
1.57649933598e-06
8.20571974546e-07
2.79441326934e-05
1.13755771172e-05
2.32183430876e-06
1.65284050768e-06
5.42408930575e-06
5.11456815823e-06
3.82819745303e-06
7.2324902019e-07
2.98915775748e-05
3.79121786315e-05
4.84332525269e-06
1.33518831506e-05
7.66039067977e-06
7.32586182706e-07
5.66387714287e-06
1.013909572e-05
2.33910546037e-05
2.62590719277e-05
4.59428206951e-05
1.07213407162e-05
1.90768258202e-06
1.4784390574e-06
3.03524211645e-06
6.61593082365e-05
7.16159503105e-05
0.000125862628692
8.70848473735e-05
7.46276944642e-05
5.18150849656e-06
8.81195832338e-05
1.12570000404e-05
8.71636326061e-07
1.50708054114e-06
1.73538749235e-07
4.90453720456e-07
1.37091091992e-05
1.3330405998e-05
1.14693075358e-06
1.77481565698e-06
1.27987290652e-06
1.04241455714e-07
5.35053699217e-07
7.89147899412e-06
1.581151727e-05
2.61074215452e-07
1.51445503998e-06
8.39975440788e-08
2.79041914685e-05
3.91006853309e-05
1.8459557852e-06
2.52070268915e-07
1.21670306878e-06
1.24410750452e-05
3.38213098968e-06
9.29588224267e-06
1.69660645326e-06
3.82210160471e-06
9.50096330277e-06
4.24680850677e-06
5.27116839165e-07
1.1995976016e-06
4.12977585095e-06
7.99690031588e-06
1.17350813319e-05
2.35809957175e-08
6.36178447507e-07
1.68997344783e-07
1.43883863187e-06
2.43350674526e-06
2.06554023193e-06
2.66484320095e-06
1.47544968467e-07
4.1162759748e-06
5.9877838597e-07
1.68068149839e-05
5.80413817689e-06
9.82595651839e-07
4.33193657902e-05
0.00061147709628
2.95545344192e-05
4.61720638247e-05
0.000187084766546
0.000116899002308
5.48633265158e-06
3.41863035873e-06
6.38221917689e-05
5.43114976509e-05
2.40202579558e-05
4.29168490139e-05
1.21923028658e-05
2.64074213893e-05
1.62158861972e-05
3.18251882628e-06
2.4091082352e-05
1.15078305574e-05
6.71306675845e-06
6.4767364046e-05
1.09802411049e-05
9.27470413717e-07
1.89922309783e-05
1.83867367496e-06
4.20829820123e-05
6.74314542003e-07
5.24605221247e-06
6.6886153353e-06
6.00026011428e-06
6.58386580918e-06
3.12293293776e-05
1.66303473022e-05
2.37980361056e-05
1.08621267729e-05
0.000291085310741
0.000193953458495
5.94194505985e-05
0.000579261840394
1.20668666022e-05
1.51439650893e-05
1.96044995548e-05
6.99704117996e-05
2.9617584616e-05
5.83490514575e-05
4.75701945056e-05
0.000346074263713
9.05671100671e-05
0.000309080221687
0.000104154622647
3.64556764735e-05
1.07892210386e-05
9.98701443334e-05
0.000101052481387
5.48011091881e-05
6.28081863972e-05
1.63265526372e-05
0.000103143194207
7.55580105311e-05
4.94699714295e-05
7.68121089607e-06
1.75393315079e-05
2.51818120754e-05
0.000468267439158
4.7936646005e-05
6.27460020757e-05
0.000498851478295
0.000276962035062
0.000284245378333
0.000442341445025
0.000265714924447
0.000454142038099
0.000762072005502
3.40695314958e-05
0.00018674012426
8.31513756916e-05
6.963678997e-05
1.45434824548e-05
4.88710579942e-05
3.33787938516e-05
6.79688627373e-05
1.24794164913e-05
1.20034122005e-05
5.63379035121e-05
0.000148104626676
7.91474773881e-05
8.95984699285e-05
2.82194651925e-05
4.96160784603e-05
0.00012647199034
0.000206194813024
3.9092854276e-05
2.21539807931e-05
0.000112019302847
0.000286749566891
6.57604907413e-05
4.31414768496e-05
9.51845130849e-06
7.60446288222e-06
0.000164714490445
0.000301536856281
3.19505653522e-06
0.000217752717298
0.000829398452486
0.000466159522477
0.000647023730617
0.000329770071489
0.000209934435244

