# vtk DataFile Version 3.0
File Name: Molecule/arg/arg_1.0-0.vtk
ASCII
DATASET UNSTRUCTURED_GRID
FIELD FieldData 1
TIME 1 1 double
0.0
POINTS 188 double
-3.403 0.327 1.604
-2.971 0.024 0.066
-2.981 -0.361 1.858
-2.549 -0.664 0.32
-2.984 0.046 0.042
-2.2 -0.483 -0.862
-2.216 -0.458 -0.889
-2.776 1.74 -0.497
-2.39 -0.269 -1.153
-2.211 1.177 -1.613
-2.622 1.932 -0.429
-1.982 1.439 -1.492
-1.81 1.654 -1.416
-2.495 2.657 0.67
-1.615 2.438 -0.879
-1.488 3.163 0.22
-3.186 2.284 1.521
-1.863 3.333 1.507
-2.53 2.972 2.328
-3.419 1.801 1.788
-2.717 2.558 2.345
-2.979 2.017 2.644
-3.408 0.559 1.798
-3.107 1.793 3.017
-3.095 0.593 3.027
-3.105 0.348 2.085
-3.1 0.088 1.867
-2.97 0.105 2.152
-2.978 0.383 3.085
-2.865 -0.346 2.113
-2.52 -0.7 2.425
-2.645 0.041 3.387
-1.592 -1.721 1.268
-2.003 -1.142 3.367
-0.984 -2.263 2.097
-2.487 -0.785 0.321
-0.96 -2.23 0.303
-1.943 -1.202 -0.738
-2.131 -0.618 -0.861
-2.114 -0.682 -1.181
-1.927 -1.264 -1.052
-2.312 -0.441 -1.376
-2.121 -0.506 -1.916
-1.682 -1.348 -1.746
-1.897 0.192 -2.527
-1.864 -0.768 -1.888
-1.57 0.147 -2.691
-2.011 1.039 -2.18
-1.198 0.386 -3.152
-1.348 1.496 -2.696
-1.72 1.257 -2.235
-1.479 1.817 -1.75
-1.107 2.057 -2.211
-1.319 2.584 -1.178
-0.816 3.013 -1.267
-0.543 2.537 -2.312
0.466 3.148 -0.891
-0.131 2.956 -2.042
0.328 3.005 -1.907
-0.048 3.337 -3.001
0.699 3.415 -2.782
1.057 2.557 -0.305
0.892 2.689 -1.891
1.553 2.026 -1.234
0.737 2.845 0.68
1.539 1.918 0.039
1.22 2.206 1.024
0.406 3.093 0.833
1.112 2.426 2.108
0.748 2.699 2.276
-0.034 3.266 2.099
-0.687 3.194 3.654
0.006 2.617 4.044
-1.995 3.111 3.523
-0.58 2.815 3.881
-2.096 2.719 3.73
-1.061 1.806 4.483
-0.466 1.628 4.634
-2.128 2.66 3.763
-1.452 1.611 4.604
-2.373 2.347 3.982
-1.464 1.095 4.666
-0.48 1.041 4.705
-1.655 0.731 4.634
-0.333 0.517 4.869
-0.555 0.096 4.831
-2.342 0.241 4.242
-0.878 -0.357 4.785
-1.658 -0.914 4.34
0.164 -1.171 5.088
0.507 -0.734 5.141
0.709 -2.198 4.495
1.043 -0.806 5.264
1.588 -1.833 4.672
1.07 -2.477 3.273
1.949 -2.112 3.449
1.037 -1.846 2.131
1.916 -1.481 2.307
0.119 -2.499 2.107
0.77 -1.662 1.233
0.064 -2.164 1.215
1.061 -1.813 0.337
0.142 -2.466 0.313
-0.782 -1.983 1.207
1.48 -1.078 0.031
1.205 -1.217 1.373
1.436 -0.812 1.205
2.335 -0.746 2.002
1.639 -0.712 -0.547
1.697 -0.118 0.66
1.842 0.216 0.134
1.488 -1.753 -1.343
2.201 -0.141 -1.444
2.057 -1.14 -2.207
0.547 -2.053 -2.217
1.154 -1.428 -3.046
-0.548 -1.409 -2.576
0.104 -0.811 -3.39
-0.822 -1.287 -2.506
-0.336 -0.591 -3.197
-0.616 -0.466 -3.125
-0.988 -0.705 -2.664
0.101 0.716 -4.098
0.516 0.418 -4.238
-0.398 1.946 -3.588
0.377 1.347 -4.4
0.117 1.987 -4.134
0.028 3.029 -3.665
0.9 3.106 -3.671
0.989 2.064 -4.14
0.819 3.383 -2.845
1.749 2.404 -3.353
1.668 2.681 -2.526
1.123 2.627 -2.01
2.133 1.624 -1.992
2.194 2.159 -2.516
2.042 0.907 -1.262
2.428 1.273 -2.257
2.342 0.599 -1.57
1.976 0.918 0.014
1.83 1.363 -3.817
1.863 2.209 -3.379
1.103 1.869 -4.167
1.884 1.434 1.198
2.541 0.959 2.592
1.842 1.579 2.299
1.814 2.002 3.263
2.513 1.382 3.555
1.359 1.937 4.21
2.058 1.316 4.502
0.651 1.408 4.781
1.35 0.788 5.074
0.82 0.891 4.947
-3.504 2.232 0.843
-3.504 1.707 -0.068
-3.94 1.181 0.843
-2.634 -1.288 1.367
0.675 3.275 -0.086
-1.198 3.606 3.478
-1.198 4.012 2.497
-2.179 3.606 2.497
-2.876 1.51 4.286
-0.744 -2.552 4.317
-0.744 -1.685 4.947
-1.656 -1.685 4.225
-0.744 -2.884 3.297
0.384 -2.884 3.297
0.438 -2.808 -0.834
-0.69 -2.808 -0.834
-0.69 -2.476 -1.854
1.35 -2.145 -0.834
0.799 2.522 4.049
3.668 -0.309 3.703
3.32 0.763 3.703
3.32 0.227 4.631
3.32 -0.845 4.631
3.32 -1.381 3.703
3.32 -0.845 2.775
3.32 0.227 2.775
2.408 0.227 5.353
2.408 -0.845 5.353
2.408 -1.712 4.723
2.923 0.206 -2.769
2.606 -0.584 -3.343
2.606 0.508 -3.698
1.775 -1.279 -3.309
1.775 -0.584 -4.137
0.749 -0.584 -4.137

CELLS 372 1488
3 0 1 2
3 2 1 3
3 1 4 5
3 5 4 6
3 4 7 8
3 8 7 9
3 7 10 11
3 11 10 12
3 10 13 14
3 14 13 15
3 13 16 17
3 17 16 18
3 16 19 20
3 20 19 21
3 19 22 23
3 23 22 24
3 22 0 25
3 25 0 26
3 25 27 24
3 24 27 28
3 27 26 29
3 29 26 2
3 29 30 28
3 28 30 31
3 30 32 33
3 33 32 34
3 32 35 36
3 36 35 37
3 35 3 38
3 38 3 5
3 38 39 37
3 37 39 40
3 39 6 41
3 41 6 8
3 41 42 40
3 40 42 43
3 42 44 45
3 45 44 46
3 44 47 48
3 48 47 49
3 47 9 50
3 50 9 11
3 50 51 49
3 49 51 52
3 51 12 53
3 53 12 14
3 53 54 52
3 52 54 55
3 54 56 57
3 57 56 58
3 57 58 59
3 59 58 60
3 56 61 62
3 62 61 63
3 61 64 65
3 65 64 66
3 64 67 68
3 68 67 69
3 67 15 70
3 70 15 17
3 70 71 69
3 69 71 72
3 71 73 74
3 74 73 75
3 73 18 75
3 75 18 20
3 74 76 72
3 72 76 77
3 76 78 79
3 79 78 80
3 78 21 80
3 80 21 23
3 79 81 77
3 77 81 82
3 81 83 84
3 84 83 85
3 83 86 87
3 87 86 88
3 86 31 88
3 88 31 33
3 87 89 85
3 85 89 90
3 89 91 92
3 92 91 93
3 91 94 93
3 93 94 95
3 94 96 95
3 95 96 97
3 96 98 99
3 99 98 100
3 99 100 101
3 101 100 102
3 98 34 100
3 100 34 103
3 100 103 102
3 102 103 36
3 101 104 105
3 105 104 106
3 105 106 97
3 97 106 107
3 104 108 109
3 109 108 110
3 108 111 112
3 112 111 113
3 111 114 113
3 113 114 115
3 114 116 115
3 115 116 117
3 116 118 119
3 119 118 120
3 118 43 121
3 121 43 45
3 121 46 120
3 120 46 48
3 119 122 117
3 117 122 123
3 122 124 125
3 125 124 126
3 124 55 127
3 127 55 59
3 127 128 126
3 126 128 129
3 128 130 131
3 131 130 132
3 130 60 133
3 133 60 62
3 133 134 132
3 132 134 135
3 134 136 137
3 137 136 138
3 136 63 139
3 139 63 65
3 139 110 138
3 138 110 112
3 137 140 135
3 135 140 141
3 140 123 142
3 142 123 125
3 142 129 141
3 141 129 131
3 109 143 107
3 107 143 144
3 143 66 145
3 145 66 68
3 145 146 144
3 144 146 147
3 146 148 147
3 147 148 149
3 148 150 149
3 149 150 151
3 150 82 152
3 152 82 84
3 152 90 151
3 151 90 92
3 26 0 2
3 5 3 1
3 8 6 4
3 11 9 7
3 14 12 10
3 17 15 13
3 20 18 16
3 23 21 19
3 25 24 22
3 29 28 27
3 33 31 30
3 103 34 32
3 103 32 36
3 38 37 35
3 41 40 39
3 45 43 42
3 48 46 44
3 50 49 47
3 53 52 51
3 59 55 57
3 57 55 54
3 62 60 58
3 62 58 56
3 65 63 61
3 68 66 64
3 70 69 67
3 74 72 71
3 79 77 76
3 84 82 81
3 87 85 83
3 92 90 89
3 105 97 96
3 105 96 99
3 105 99 101
3 109 107 106
3 109 106 104
3 112 110 108
3 119 117 116
3 121 120 118
3 125 123 122
3 127 126 124
3 131 129 128
3 133 132 130
3 137 135 134
3 139 138 136
3 142 141 140
3 145 144 143
3 152 151 150
3 153 154 155
3 155 154 4
3 155 4 0
3 155 0 22
3 155 22 19
3 155 19 153
3 153 19 16
3 153 16 13
3 153 13 154
3 154 13 10
3 154 10 7
3 154 7 4
3 0 4 1
3 3 35 156
3 3 156 2
3 2 156 30
3 2 30 29
3 30 156 32
3 32 156 35
3 6 39 38
3 6 38 5
3 9 47 42
3 9 42 8
3 8 42 41
3 42 47 44
3 12 51 11
3 11 51 50
3 15 67 157
3 15 157 54
3 15 54 53
3 15 53 14
3 54 157 56
3 56 157 61
3 61 157 64
3 64 157 67
3 158 159 160
3 158 160 73
3 158 73 71
3 158 71 159
3 159 71 70
3 159 70 17
3 159 17 160
3 160 17 18
3 160 18 73
3 78 76 75
3 78 75 20
3 78 20 21
3 75 76 74
3 24 28 161
3 24 161 23
3 23 161 80
3 80 161 79
3 79 161 81
3 81 161 83
3 83 161 86
3 86 161 28
3 86 28 31
3 26 27 25
3 162 163 164
3 162 164 165
3 162 165 166
3 162 166 91
3 162 91 163
3 163 91 89
3 163 89 87
3 163 87 88
3 163 88 164
3 164 88 33
3 164 33 165
3 165 33 34
3 165 34 98
3 165 98 166
3 166 98 94
3 166 94 91
3 94 98 96
3 167 168 169
3 167 169 114
3 167 114 170
3 167 170 101
3 167 101 102
3 167 102 168
3 168 102 36
3 168 36 37
3 168 37 40
3 168 40 43
3 168 43 169
3 169 43 118
3 169 118 116
3 169 116 114
3 101 170 104
3 104 170 108
3 108 170 111
3 111 170 114
3 46 121 45
3 49 52 124
3 49 124 48
3 48 124 122
3 48 122 120
3 120 122 119
3 124 52 55
3 60 130 128
3 60 128 59
3 59 128 127
3 63 136 134
3 63 134 133
3 63 133 62
3 66 143 65
3 65 143 139
3 139 143 110
3 110 143 109
3 69 72 171
3 69 171 146
3 69 146 68
3 68 146 145
3 146 171 148
3 148 171 150
3 150 171 72
3 150 72 77
3 150 77 82
3 85 90 84
3 84 90 152
3 172 173 174
3 172 174 175
3 172 175 176
3 172 176 177
3 172 177 178
3 172 178 173
3 174 179 180
3 175 174 180
3 175 180 181
3 176 175 181
3 176 181 95
3 176 95 97
3 176 97 177
3 177 97 107
3 177 107 178
3 178 107 144
3 178 144 173
3 173 144 147
3 173 147 149
3 173 149 174
3 174 149 179
3 179 149 151
3 179 151 92
3 179 92 180
3 180 92 93
3 180 93 181
3 181 93 95
3 182 183 184
3 183 185 186
3 184 183 186
3 186 185 187
3 186 187 123
3 186 123 140
3 186 140 184
3 184 140 137
3 184 137 182
3 182 137 138
3 182 138 112
3 182 112 113
3 182 113 183
3 183 113 185
3 185 113 115
3 185 115 187
3 187 115 117
3 187 117 123
3 126 129 125
3 125 129 142
3 132 135 131
3 131 135 141

CELL_TYPES 372
5
5
5
5
5
5
5
5
5
5
5
5
5
5
5
5
5
5
5
5
5
5
5
5
5
5
5
5
5
5
5
5
5
5
5
5
5
5
5
5
5
5
5
5
5
5
5
5
5
5
5
5
5
5
5
5
5
5
5
5
5
5
5
5
5
5
5
5
5
5
5
5
5
5
5
5
5
5
5
5
5
5
5
5
5
5
5
5
5
5
5
5
5
5
5
5
5
5
5
5
5
5
5
5
5
5
5
5
5
5
5
5
5
5
5
5
5
5
5
5
5
5
5
5
5
5
5
5
5
5
5
5
5
5
5
5
5
5
5
5
5
5
5
5
5
5
5
5
5
5
5
5
5
5
5
5
5
5
5
5
5
5
5
5
5
5
5
5
5
5
5
5
5
5
5
5
5
5
5
5
5
5
5
5
5
5
5
5
5
5
5
5
5
5
5
5
5
5
5
5
5
5
5
5
5
5
5
5
5
5
5
5
5
5
5
5
5
5
5
5
5
5
5
5
5
5
5
5
5
5
5
5
5
5
5
5
5
5
5
5
5
5
5
5
5
5
5
5
5
5
5
5
5
5
5
5
5
5
5
5
5
5
5
5
5
5
5
5
5
5
5
5
5
5
5
5
5
5
5
5
5
5
5
5
5
5
5
5
5
5
5
5
5
5
5
5
5
5
5
5
5
5
5
5
5
5
5
5
5
5
5
5
5
5
5
5
5
5
5
5
5
5
5
5
5
5
5
5
5
5
5
5
5
5
5
5
5
5
5
5
5
5
5
5
5
5
5
5
5
5
5
5
5
5
5
5
5
5
5
5
5
5
5
5
5
5
5
5
5
5
5
5

CELL_DATA 372
SCALARS cell_data_0 double
LOOKUP_TABLE default
7.13643967266e-07
4.08551960435e-06
1.35046998853e-06
2.22881655694e-06
9.83790573533e-06
2.30647763561e-05
3.34160690532e-06
1.94016814308e-06
4.42898579063e-06
4.00313965647e-06
2.72646494256e-06
9.69721365791e-07
4.61130598201e-07
1.86816838805e-06
2.66403809997e-07
1.15073999721e-06
2.82940137902e-07
5.1744320166e-07
7.33413939271e-07
1.48306434723e-06
1.30795557476e-06
2.03208287204e-07
8.50556994593e-07
1.36692499387e-05
7.52154611008e-06
4.89410491094e-05
3.17940840614e-06
7.78644585596e-06
4.9062413354e-07
2.74187183441e-06
1.19304281613e-06
3.4593241479e-06
5.72082003403e-06
1.62694770035e-06
1.53272388685e-06
2.28561432861e-05
7.63565482564e-06
7.90177523775e-06
1.78000876141e-05
1.3512923256e-05
9.8344523208e-06
2.64406960474e-07
4.51946243335e-06
6.20944224584e-06
4.16049799185e-06
4.95789751001e-06
2.00964793722e-05
1.55594055189e-05
7.23075111179e-06
4.47436865384e-05
7.19837593721e-05
0.000391424833919
2.75898516412e-05
1.07969883504e-06
1.15861630729e-05
4.14887252836e-06
2.21709520939e-06
3.57829200364e-05
1.47742906345e-05
8.19574862049e-06
3.60256127763e-05
1.99232874026e-05
1.87160330598e-06
1.94419246836e-06
6.93694684391e-07
2.34830476586e-06
2.31995522908e-06
2.46050783857e-06
4.69893256163e-07
2.20861024323e-06
6.81597985642e-08
3.97689759768e-07
1.55001730819e-06
3.43788889682e-07
3.19232559302e-06
3.11900538539e-06
2.24384324e-06
1.41442517108e-06
3.14578252574e-05
2.21444170886e-05
2.95594365845e-06
2.54330864275e-06
1.54188190243e-05
5.98382077774e-05
1.04797202382e-05
5.70896977452e-05
0.000101257058453
5.2841494209e-05
4.01787051785e-06
6.54074401246e-06
6.07064442387e-06
1.14265018695e-05
1.22662702242e-06
1.04883317119e-06
1.23213831861e-06
6.56459313636e-06
5.58512272952e-06
2.54652610084e-06
3.7021901804e-06
1.22921179827e-05
1.72523698053e-06
6.19612719179e-06
8.97966949898e-08
5.81552457284e-06
8.56303391138e-06
7.20821711229e-06
6.61833562144e-06
1.01681318534e-05
1.96362460975e-06
1.80429376846e-06
7.73349172686e-07
1.1033714356e-06
1.0136607063e-07
9.24693034449e-06
1.39956200811e-06
1.25492363458e-05
9.60659158642e-05
2.1995246848e-05
3.45837503479e-05
0.000421947715659
0.000564376608128
9.36557795783e-05
0.000263211523308
2.60143575992e-05
3.33860425465e-05
6.34046898363e-05
4.63865382532e-05
9.78996797627e-05
1.6379573836e-05
6.42236426784e-07
7.09121858767e-06
1.21713395926e-05
6.18578073603e-06
1.57596365971e-05
0.000110622076384
9.09153366064e-05
2.29512242118e-05
4.79001085495e-05
5.35141239384e-05
1.47093138264e-05
1.4479584606e-05
2.57391600043e-06
3.0537332806e-06
1.24463200859e-05
6.63147066617e-05
0.000133480215467
0.000102100214177
4.65893124782e-06
4.64102672083e-06
1.36836256241e-05
7.31150170102e-07
6.91423742486e-07
1.81323864583e-06
3.19907381183e-06
1.35260772551e-06
7.00406274452e-06
8.9269790678e-06
9.47761254852e-06
6.3823279179e-06
1.23816513574e-05
2.07800853899e-06
2.90680703553e-06
1.47104240258e-06
9.68284912986e-07
2.5213121159e-05
7.88010637738e-07
4.18774197634e-06
5.30051831258e-06
1.06653587893e-06
4.58440871597e-06
4.90339245449e-06
3.70134199512e-06
1.09991572953e-05
0.000146924169475
2.30065333878e-05
6.20779244225e-05
5.88298850443e-05
1.02876599619e-05
8.84535002533e-06
3.30087312986e-05
1.24465351337e-06
1.02307028003e-06
1.01947714439e-06
1.14897699864e-06
4.42773994688e-06
2.72279734162e-05
2.7612886939e-07
9.98218807355e-06
4.71921369126e-06
1.92087231833e-06
7.71680436809e-06
3.18123286237e-07
3.72236626152e-06
7.83286020879e-05
0.000107475572939
0.000370361451658
9.82258787186e-05
7.85441180899e-05
4.31243949221e-06
0.000137354649009
4.72675447012e-07
3.14055579111e-06
1.57302318715e-06
3.41634959777e-06
1.35842931364e-06
1.48446888408e-06
2.84946204822e-06
1.51185404842e-06
3.88906496782e-08
9.53803866987e-07
6.54759619145e-07
2.09052853753e-06
2.5173050263e-07
1.20415555954e-05
7.11982368866e-07
1.34973843209e-06
2.05778280055e-07
3.8987632234e-06
2.10574900561e-08
8.5669242796e-06
3.90139374182e-06
2.41677450639e-06
1.07091887756e-07
2.71551790025e-05
3.55103362512e-05
1.47947382831e-06
1.91589991343e-06
2.09049805063e-06
1.47928999828e-05
1.84012492663e-05
2.70729370589e-06
2.35333504245e-06
3.97945366216e-06
1.7912129527e-05
1.03280603106e-05
1.53115393144e-06
4.86453639073e-07
1.81046826106e-06
9.5849588981e-07
4.17399630714e-07
1.7042192295e-06
1.44777266256e-05
8.67081339925e-06
5.32012676521e-06
1.50196249642e-07
1.48683999107e-07
2.02151530802e-07
1.49773333432e-07
2.94622141019e-06
1.94910776125e-06
9.07897097957e-07
4.33909328793e-06
3.04016522347e-07
1.04103888079e-06
1.85247671188e-06
3.76402202893e-06
2.17678282923e-06
7.07132512056e-06
2.81955187873e-06
7.82617407382e-07
6.53097981883e-06
3.01127506963e-05
2.4767148498e-05
0.000202396789267
3.55112367983e-05
1.96549923918e-05
5.7844809504e-06
5.09309641708e-06
2.03016964169e-05
1.38917815755e-05
5.69914305937e-05
2.35814559571e-05
6.09152994585e-05
7.7757496012e-05
6.32949851646e-05
0.000113256937706
7.29355223472e-05
1.58838495334e-06
4.39148468296e-06
1.02137725794e-05
7.69462805109e-06
3.96529367939e-06
9.74165098724e-06
3.7378964646e-06
6.0929550827e-06
3.42088981204e-06
1.65186063933e-05
1.46483122842e-06
5.3395548147e-06
1.79501309638e-06
1.09730022035e-05
1.28173111216e-06
4.51566753884e-06
1.982071062e-06
2.7394036451e-06
1.62869523509e-05
1.91963841868e-05
2.76941121079e-06
7.12657078813e-05
8.59333763202e-06
2.42253955968e-06
5.49191804004e-05
4.56212280271e-05
0.00179197433452
0.00169748656061
6.95466775969e-06
7.13148919303e-05
6.15702017186e-06
5.45065402157e-07
3.0798296456e-06
5.72223998817e-06
5.24544008686e-06
1.10916031537e-05
0.000299914078944
3.80626832356e-05
1.79965481832e-05
8.1352605616e-06
6.92825058255e-06
3.11218733632e-05
9.52570489339e-06
2.40195401211e-08
1.1532428201e-06
9.26456342326e-07
7.07255682259e-05
3.43163881285e-05
5.647689465e-06
9.38194333039e-06
3.30543255976e-05
5.76983204545e-05
9.39239642841e-07
1.88168509445e-05
5.72942668419e-05
6.68117448237e-05
0.000269993708879
4.85729672831e-06
2.55758023807e-05
7.25910471026e-06
7.24806324567e-06
4.36697946022e-06
1.12753501761e-05
0.000106973128783
0.000160268535817
0.00011094673842
1.70933848487e-05
2.63048111475e-05
4.1034035597e-06
1.09875493822e-05
4.17773292598e-05
4.79772543925e-05
0.000112146103757
5.92659168438e-06
5.54044872653e-06
3.84471251341e-07
2.85637189692e-06
1.39199336615e-05
7.49162132384e-06
1.04899019717e-05
2.6200962733e-05
1.00933711173e-05
1.13179035832e-05
9.85577361162e-06
2.03679035867e-05
2.97614077529e-06
1.43849651795e-06
1.80567685408e-06
8.12552607136e-06
1.13217357598e-05
5.63583930334e-06
0.000486981090934
0.000101431074678
0.000364254923428
0.000120783626495

