# vtk DataFile Version 3.0
File Name: Molecule/arg/arg_0.5-5.vtk
ASCII
DATASET UNSTRUCTURED_GRID
FIELD FieldData 1
TIME 1 1 double
0.0
POINTS 172 double
-3.403 0.327 1.604
-2.971 0.024 0.066
-2.981 -0.361 1.858
-2.549 -0.664 0.32
-2.984 0.046 0.042
-2.2 -0.483 -0.862
-2.216 -0.458 -0.889
-2.776 1.74 -0.497
-2.39 -0.269 -1.153
-2.211 1.177 -1.613
-2.622 1.932 -0.429
-1.982 1.439 -1.492
-1.81 1.654 -1.416
-2.495 2.657 0.67
-1.615 2.438 -0.879
-1.488 3.163 0.22
-3.186 2.284 1.521
-1.863 3.333 1.507
-2.53 2.972 2.328
-3.419 1.801 1.788
-2.717 2.558 2.345
-2.979 2.017 2.644
-3.408 0.559 1.798
-3.107 1.793 3.017
-3.095 0.593 3.027
-3.105 0.348 2.085
-3.1 0.088 1.867
-2.97 0.105 2.152
-2.978 0.383 3.085
-2.865 -0.346 2.113
-2.52 -0.7 2.425
-2.645 0.041 3.387
-1.592 -1.721 1.268
-2.003 -1.142 3.367
-0.984 -2.263 2.097
-2.487 -0.785 0.321
-0.96 -2.23 0.303
-1.943 -1.202 -0.738
-2.131 -0.618 -0.861
-2.114 -0.682 -1.181
-1.927 -1.264 -1.052
-2.312 -0.441 -1.376
-2.121 -0.506 -1.916
-1.682 -1.348 -1.746
-1.897 0.192 -2.527
-1.864 -0.768 -1.888
-1.57 0.147 -2.691
-2.011 1.039 -2.18
-1.198 0.386 -3.152
-1.348 1.496 -2.696
-1.72 1.257 -2.235
-1.479 1.817 -1.75
-1.107 2.057 -2.211
-1.319 2.584 -1.178
-0.816 3.013 -1.267
-0.543 2.537 -2.312
0.466 3.148 -0.891
-0.048 3.337 -3.001
1.057 2.557 -0.305
0.892 2.689 -1.891
1.553 2.026 -1.234
0.737 2.845 0.68
1.539 1.918 0.039
1.22 2.206 1.024
0.406 3.093 0.833
1.112 2.426 2.108
0.748 2.699 2.276
-0.034 3.266 2.099
-0.687 3.194 3.654
0.006 2.617 4.044
-1.995 3.111 3.523
-0.58 2.815 3.881
-2.096 2.719 3.73
-1.061 1.806 4.483
-0.466 1.628 4.634
-2.128 2.66 3.763
-1.452 1.611 4.604
-2.373 2.347 3.982
-1.464 1.095 4.666
-0.48 1.041 4.705
-1.655 0.731 4.634
-0.333 0.517 4.869
-0.555 0.096 4.831
-0.878 -0.357 4.785
0.164 -1.171 5.088
0.507 -0.734 5.141
0.93 -2.454 3.923
1.043 -0.806 5.264
1.809 -2.089 4.099
1.037 -1.846 2.131
1.061 -1.813 0.337
1.48 -1.078 0.031
1.916 -1.481 2.307
2.335 -0.746 2.002
1.639 -0.712 -0.547
1.697 -0.118 0.66
1.842 0.216 0.134
1.085 -2.024 -1.812
2.201 -0.141 -1.444
1.67 -1.4 -2.657
-0.548 -1.409 -2.576
0.104 -0.811 -3.39
-0.822 -1.287 -2.506
-0.336 -0.591 -3.197
-0.616 -0.466 -3.125
-0.988 -0.705 -2.664
0.101 0.716 -4.098
0.516 0.418 -4.238
-0.398 1.946 -3.588
0.377 1.347 -4.4
0.117 1.987 -4.134
0.028 3.029 -3.665
0.9 3.106 -3.671
0.989 2.064 -4.14
0.819 3.383 -2.845
1.749 2.404 -3.353
1.668 2.681 -2.526
0.699 3.415 -2.782
1.123 2.627 -2.01
2.133 1.624 -1.992
2.194 2.159 -2.516
2.042 0.907 -1.262
2.428 1.273 -2.257
2.342 0.599 -1.57
1.976 0.918 0.014
1.83 1.363 -3.817
1.863 2.209 -3.379
1.103 1.869 -4.167
1.884 1.434 1.198
2.541 0.959 2.592
1.842 1.579 2.299
0.651 1.408 4.781
0.82 0.891 4.947
1.35 0.788 5.074
-3.94 1.181 0.843
-1.891 3.826 2.497
-2.589 1.578 4.495
-1.092 -1.939 4.665
0.786 -2.653 -0.834
3.668 -0.309 3.703
2.756 0.481 5.071
2.756 -1.099 5.071
2.093 -0.513 -4.015
1.2465 1.4935 3.54
0.924 2.098 3.1715
0.3285 2.0125 4.4125
0.3255 3.376 -2.8915
1.9455 0.8735 3.833
0.7995 3.2605 -3.2265
0.426 3.2215 -3.336
2.6485 0.72 3.8315
2.053 0.6345 5.0725
1.8625 -1.785 3.203
2.7385 -1.199 3.901
2.792 -0.895 3.005
1.54425 1.53625 2.9195
1.383 1.8385 2.73525
1.08525 1.79575 3.35575
1.83575 -1.937 3.651
2.27375 -1.644 4.0
2.3005 -1.492 3.552
1.1535 1.96825 2.953375
1.234125 1.817125 3.0455
1.004625 1.946875 3.263625
2.24325 0.91625 3.2125
2.59475 0.8395 3.21175
2.297 0.79675 3.83225
1.1596875 1.8064375 3.200625
1.1938125 1.8926875 2.9994375
1.0790625 1.9575625 3.1085
1.119375 1.882 3.1545625
1.0449375 1.8713125 3.3096875

CELLS 340 1360
3 0 1 2
3 2 1 3
3 1 4 5
3 5 4 6
3 4 7 8
3 8 7 9
3 7 10 11
3 11 10 12
3 10 13 14
3 14 13 15
3 13 16 17
3 17 16 18
3 16 19 20
3 20 19 21
3 19 22 23
3 23 22 24
3 22 0 25
3 25 0 26
3 25 27 24
3 24 27 28
3 27 26 29
3 29 26 2
3 29 30 28
3 28 30 31
3 30 32 33
3 33 32 34
3 32 35 36
3 36 35 37
3 35 3 38
3 38 3 5
3 38 39 37
3 37 39 40
3 39 6 41
3 41 6 8
3 41 42 40
3 40 42 43
3 42 44 45
3 45 44 46
3 44 47 48
3 48 47 49
3 47 9 50
3 50 9 11
3 50 51 49
3 49 51 52
3 51 12 53
3 53 12 14
3 53 54 52
3 52 54 55
3 54 56 57
3 56 58 59
3 59 58 60
3 58 61 62
3 62 61 63
3 61 64 65
3 65 64 66
3 64 15 67
3 67 15 17
3 67 68 66
3 66 68 69
3 68 70 71
3 71 70 72
3 70 18 72
3 72 18 20
3 71 73 69
3 69 73 74
3 73 75 76
3 76 75 77
3 75 21 77
3 77 21 23
3 76 78 74
3 74 78 79
3 78 80 81
3 81 80 82
3 80 31 83
3 83 31 33
3 83 84 82
3 82 84 85
3 84 86 87
3 87 86 88
3 86 89 88
3 89 34 90
3 90 34 36
3 90 91 92
3 92 91 93
3 91 94 95
3 95 94 96
3 94 97 98
3 98 97 99
3 97 100 99
3 99 100 101
3 100 102 103
3 103 102 104
3 102 43 105
3 105 43 45
3 105 46 104
3 104 46 48
3 103 106 101
3 101 106 107
3 106 108 109
3 109 108 110
3 108 55 111
3 111 55 57
3 111 112 110
3 110 112 113
3 112 114 115
3 115 114 116
3 114 117 118
3 118 117 59
3 118 119 116
3 116 119 120
3 119 121 122
3 122 121 123
3 121 60 124
3 124 60 62
3 124 96 123
3 123 96 98
3 122 125 120
3 120 125 126
3 125 107 127
3 127 107 109
3 127 113 126
3 126 113 115
3 95 128 93
3 93 128 129
3 128 63 130
3 130 63 65
3 131 79 132
3 132 79 81
3 132 85 133
3 133 85 87
3 26 0 2
3 5 3 1
3 8 6 4
3 11 9 7
3 14 12 10
3 17 15 13
3 20 18 16
3 23 21 19
3 25 24 22
3 29 28 27
3 33 31 30
3 36 34 32
3 38 37 35
3 41 40 39
3 45 43 42
3 48 46 44
3 50 49 47
3 53 52 51
3 57 55 54
3 59 117 56
3 62 60 58
3 65 63 61
3 67 66 64
3 71 69 68
3 76 74 73
3 81 79 78
3 83 82 80
3 87 85 84
3 90 92 89
3 95 93 91
3 98 96 94
3 103 101 100
3 105 104 102
3 109 107 106
3 111 110 108
3 115 113 112
3 118 116 114
3 122 120 119
3 124 123 121
3 127 126 125
3 130 129 128
3 132 133 131
3 0 22 134
3 0 134 4
3 0 4 1
3 4 134 7
3 7 134 13
3 7 13 10
3 13 134 16
3 16 134 19
3 19 134 22
3 3 35 2
3 2 35 32
3 2 32 30
3 2 30 29
3 6 39 38
3 6 38 5
3 9 47 42
3 9 42 8
3 8 42 41
3 42 47 44
3 12 51 11
3 11 51 50
3 15 64 56
3 15 56 54
3 15 54 53
3 15 53 14
3 56 64 61
3 56 61 58
3 70 68 135
3 70 135 18
3 18 135 17
3 17 135 67
3 67 135 68
3 75 73 72
3 75 72 20
3 75 20 21
3 72 73 71
3 24 28 136
3 24 136 23
3 23 136 77
3 77 136 76
3 76 136 78
3 78 136 80
3 80 136 31
3 31 136 28
3 26 27 25
3 34 89 86
3 34 86 137
3 34 137 33
3 33 137 83
3 83 137 84
3 84 137 86
3 37 40 36
3 36 40 43
3 36 43 138
3 36 138 90
3 90 138 91
3 91 138 97
3 91 97 94
3 97 138 100
3 100 138 43
3 100 43 102
3 46 105 45
3 49 52 108
3 49 108 48
3 48 108 106
3 48 106 104
3 104 106 103
3 108 52 55
3 60 121 119
3 60 119 118
3 60 118 59
3 63 128 62
3 62 128 124
3 124 128 96
3 96 128 95
3 66 69 65
3 131 74 79
3 82 85 81
3 81 85 132
3 139 140 141
3 139 93 129
3 140 87 141
3 141 87 88
3 101 107 142
3 101 142 99
3 99 142 98
3 98 142 123
3 123 142 122
3 122 142 125
3 125 142 107
3 110 113 109
3 109 113 127
3 116 120 115
3 115 120 126
3 143 131 129
3 69 144 65
3 144 69 145
3 143 145 131
3 131 145 74
3 145 69 74
3 117 146 56
3 56 146 57
3 133 147 131
3 112 148 114
3 114 148 117
3 117 148 146
3 148 149 146
3 148 112 149
3 146 149 57
3 57 149 111
3 149 112 111
3 139 150 140
3 140 150 151
3 151 147 133
3 140 151 87
3 151 133 87
3 92 152 89
3 141 153 139
3 139 153 154
3 154 152 92
3 139 154 93
3 154 92 93
3 130 155 129
3 155 143 129
3 65 156 130
3 130 156 155
3 155 157 143
3 143 157 145
3 152 158 89
3 89 158 88
3 88 159 141
3 159 153 141
3 153 160 154
3 160 152 154
3 153 159 160
3 159 158 160
3 159 88 158
3 160 158 152
3 144 161 65
3 161 156 65
3 156 162 155
3 145 163 144
3 147 164 131
3 131 164 129
3 129 165 139
3 165 150 139
3 150 166 151
3 166 147 151
3 150 165 166
3 165 164 166
3 165 129 164
3 166 164 147
3 162 167 155
3 167 157 155
3 161 168 156
3 156 168 162
3 161 169 168
3 169 170 168
3 169 163 170
3 168 170 162
3 163 169 144
3 144 169 161
3 162 170 167
3 170 171 167
3 170 163 171
3 167 171 157
3 157 171 145
3 171 163 145

CELL_TYPES 340
5
5
5
5
5
5
5
5
5
5
5
5
5
5
5
5
5
5
5
5
5
5
5
5
5
5
5
5
5
5
5
5
5
5
5
5
5
5
5
5
5
5
5
5
5
5
5
5
5
5
5
5
5
5
5
5
5
5
5
5
5
5
5
5
5
5
5
5
5
5
5
5
5
5
5
5
5
5
5
5
5
5
5
5
5
5
5
5
5
5
5
5
5
5
5
5
5
5
5
5
5
5
5
5
5
5
5
5
5
5
5
5
5
5
5
5
5
5
5
5
5
5
5
5
5
5
5
5
5
5
5
5
5
5
5
5
5
5
5
5
5
5
5
5
5
5
5
5
5
5
5
5
5
5
5
5
5
5
5
5
5
5
5
5
5
5
5
5
5
5
5
5
5
5
5
5
5
5
5
5
5
5
5
5
5
5
5
5
5
5
5
5
5
5
5
5
5
5
5
5
5
5
5
5
5
5
5
5
5
5
5
5
5
5
5
5
5
5
5
5
5
5
5
5
5
5
5
5
5
5
5
5
5
5
5
5
5
5
5
5
5
5
5
5
5
5
5
5
5
5
5
5
5
5
5
5
5
5
5
5
5
5
5
5
5
5
5
5
5
5
5
5
5
5
5
5
5
5
5
5
5
5
5
5
5
5
5
5
5
5
5
5
5
5
5
5
5
5
5
5
5
5
5
5
5
5
5
5
5
5
5
5
5
5
5
5
5
5
5
5
5
5
5
5
5
5
5
5
5
5
5
5
5
5
5
5
5
5
5
5

CELL_DATA 340
SCALARS cell_data_0 double
LOOKUP_TABLE default
8.02276374087e-08
1.65201893593e-06
1.36937980827e-06
2.19263592614e-06
1.75327802572e-05
2.82698377343e-05
3.25760260047e-06
4.5150179231e-06
8.18546171332e-07
2.7653967982e-06
1.57213537416e-06
1.30588065261e-06
3.23620797957e-07
1.34152874648e-06
1.84570602888e-06
1.53762915221e-06
4.81282112877e-08
9.7383701207e-07
1.01306892165e-06
1.16387376688e-06
1.70269874251e-06
8.5468805835e-07
2.63153404976e-06
8.57166755185e-06
4.20894494267e-05
0.000149267307057
2.16828614743e-05
9.47232067071e-06
6.88751326072e-07
1.0827026166e-06
3.38400984267e-06
4.93786608361e-07
3.97725925263e-06
1.53822916728e-06
5.04907281433e-06
2.38984489734e-05
5.68325795094e-06
9.98985374032e-06
1.43638185787e-05
1.30248575308e-05
9.05260463016e-06
2.32394705141e-06
8.09251713806e-07
4.79726526915e-06
2.422970357e-06
3.35012666263e-06
7.19493489173e-06
3.46062269996e-05
0.000113697240244
6.20426284332e-06
1.85439266548e-05
8.58019676287e-06
6.39369542041e-07
6.97243217544e-06
8.72219541749e-06
8.21055200818e-07
4.89612489793e-06
1.40815827632e-05
2.1457097635e-05
2.83920539858e-06
1.45736999669e-06
1.17588189515e-06
2.39007727991e-06
7.13038312495e-06
4.0192459507e-06
2.1336325355e-06
5.76711266657e-07
4.61669932018e-07
1.23893228564e-06
4.42740498413e-06
4.18284461709e-06
1.22656814989e-06
1.96230638076e-05
5.30213863172e-05
8.85596648642e-05
5.13370692634e-05
2.56861790388e-05
0.00028176211655
0.000320761255836
0.000244472428717
7.93772287853e-05
8.5552814495e-05
9.71013103896e-05
8.94179250321e-06
5.30203022783e-06
1.64273685447e-05
1.2952059312e-05
2.94603951192e-05
1.15084081277e-05
1.20086385427e-05
3.76723467155e-07
2.80625057567e-06
6.60951784032e-07
6.76453713038e-06
2.03190774926e-06
1.01276140887e-05
1.82383736739e-07
1.27405510225e-05
4.34376216158e-05
7.237781246e-05
0.000151811344834
0.0002554425158
0.000271572536337
6.67146782689e-05
0.000173023882771
4.44010135753e-05
7.86959946267e-06
3.77300488294e-06
4.99578206909e-05
7.29221487003e-05
1.10891447942e-05
1.44400114654e-05
1.98520501376e-05
5.76457748132e-06
1.72120876524e-05
5.92536547002e-05
0.000101341592842
0.000123539268285
8.42914783178e-06
1.03655422486e-05
6.91437347493e-05
6.38128354887e-05
1.6526420784e-05
8.17331846755e-06
1.17057287874e-05
4.86835295133e-06
2.74955351098e-06
1.58985536061e-05
4.75426709491e-05
3.61663041685e-05
1.08161257281e-06
6.44920352724e-06
6.03700947981e-06
1.08116440403e-05
9.25206125932e-07
8.74026833649e-06
1.76594869713e-06
2.24722701931e-06
1.67608443921e-06
9.73267471415e-07
2.84351072926e-05
1.16919176155e-05
2.64191701508e-06
1.58558938458e-06
5.47732095017e-06
4.89610516238e-06
3.81267960895e-06
4.69199294197e-07
2.95308680033e-05
3.7118224122e-05
4.95448964397e-06
7.33484478834e-06
8.53426757226e-06
2.2015659891e-06
3.58468561691e-06
7.02175420514e-06
2.26808107941e-05
2.81710894377e-05
4.44078771762e-05
1.5187546626e-05
1.40483657176e-06
1.92228624945e-06
3.31348903013e-06
6.57810131496e-05
7.16590947681e-05
0.000126291220829
8.72031732015e-05
7.44654767179e-05
5.22051625155e-06
8.78193220318e-05
7.99573543194e-06
7.95869588581e-06
1.52218937387e-06
7.08487570921e-07
4.91505021673e-07
1.33402197499e-05
1.34327897385e-05
1.04638464847e-06
1.6483349791e-06
1.20962319464e-06
3.72471284108e-07
4.53705694705e-07
6.51509948492e-06
1.63904157222e-05
2.89326881161e-07
1.4922676984e-06
8.4029559334e-08
2.68388123057e-05
3.87497146227e-05
1.85320376904e-06
2.17548422285e-07
1.23490253875e-06
1.26492813563e-05
3.25301636455e-06
1.11521487881e-05
1.68699965259e-06
4.07963106059e-06
8.71340903642e-06
3.86183334992e-06
7.22886899114e-07
1.25397020094e-06
4.05007807655e-06
9.56068858106e-06
9.74582093617e-06
2.20714851142e-07
3.5146197184e-07
4.756899601e-07
4.38534527123e-06
2.34126966965e-06
2.55776862165e-06
2.44670442193e-06
3.89937615408e-07
2.43183728859e-06
3.23913720647e-07
1.86602256043e-05
5.95023551353e-06
1.02672878564e-06
4.08330243598e-05
0.000612706051704
3.00282100127e-05
4.55195177584e-05
0.000184515667434
0.000121693002656
5.48413743708e-06
3.52821620719e-06
6.36449343339e-05
5.36520434817e-05
2.47817804859e-05
4.23515925414e-05
1.19950288835e-05
2.61888255512e-05
1.62978412067e-05
3.09720536716e-06
2.4091573788e-05
1.11864020922e-05
7.18054490818e-06
6.48343006304e-05
1.11665192093e-05
7.74958823333e-07
1.86523157004e-05
1.54355435251e-06
4.16457373842e-05
8.47745449195e-07
4.85234531929e-07
4.76612950547e-06
8.42446177929e-06
9.49095609793e-06
3.41368004466e-05
1.6979019783e-05
2.41812476564e-05
1.00179194845e-05
0.000189193772581
0.000118047524123
3.11028918436e-05
0.000608880010251
1.1955247435e-05
1.49559976576e-05
1.94918030985e-05
7.03702192702e-05
2.97876378111e-05
5.81697416688e-05
4.79125902248e-05
0.000346047447645
9.05350402559e-05
0.00030943232216
0.000103980877479
2.86019592712e-05
4.77746108452e-05
7.14869076424e-06
4.64355296127e-05
2.52815196662e-05
5.04143905396e-05
1.62826870773e-05
0.000102611315791
4.69078613792e-05
7.56651340114e-06
1.75465556515e-05
2.53539718514e-05
0.000468450235042
4.77359263808e-05
6.28117672636e-05
0.000498731806981
0.000277027096216
0.00031056641483
0.000146897458763
0.000123226440642
0.000162825339812
5.54674044896e-05
6.69048286449e-05
2.08304742765e-05
3.76396532547e-05
3.62922857727e-05
5.77120241065e-05
1.94363572274e-05
1.18926284772e-05
4.03760316402e-05
8.63653221388e-06
9.84905886017e-06
9.95545221163e-05
7.25161329233e-05
5.31350993058e-05
0.00012792361715
0.000208847220649
2.75358731432e-05
1.52791714738e-05
0.000111599726356
0.000284625551082
6.40988478338e-05
4.5511329559e-05
8.86263949283e-06
0.000178484725314
4.34638561198e-05
6.66041532027e-05
6.36870429344e-05
6.94829871593e-05
4.13780304218e-05
0.000187457760049
0.00030019086198
0.000159211498663
0.000231548365144
0.000549244819132
3.93601030773e-05
8.41225358043e-05
3.88896695056e-05
0.000122736201095
4.96052252743e-05
6.37584781938e-06
1.24298362075e-05
4.9957951005e-05
0.000138043954699
7.52248214065e-05
2.48520832706e-05
8.64411887419e-05
4.62385582604e-05
5.70095411569e-05
9.80526446569e-05
0.000152791243294
7.69656015163e-05
2.39012705316e-05
2.13918120782e-06

