# vtk DataFile Version 3.0
File Name: Molecule/arg/arg_0.5-3.vtk
ASCII
DATASET UNSTRUCTURED_GRID
FIELD FieldData 1
TIME 1 1 double
0.0
POINTS 158 double
-3.403 0.327 1.604
-2.971 0.024 0.066
-2.981 -0.361 1.858
-2.549 -0.664 0.32
-2.984 0.046 0.042
-2.2 -0.483 -0.862
-2.216 -0.458 -0.889
-2.776 1.74 -0.497
-2.39 -0.269 -1.153
-2.211 1.177 -1.613
-2.622 1.932 -0.429
-1.982 1.439 -1.492
-1.81 1.654 -1.416
-2.495 2.657 0.67
-1.615 2.438 -0.879
-1.488 3.163 0.22
-3.186 2.284 1.521
-1.863 3.333 1.507
-2.53 2.972 2.328
-3.419 1.801 1.788
-2.717 2.558 2.345
-2.979 2.017 2.644
-3.408 0.559 1.798
-3.107 1.793 3.017
-3.095 0.593 3.027
-3.105 0.348 2.085
-3.1 0.088 1.867
-2.97 0.105 2.152
-2.978 0.383 3.085
-2.865 -0.346 2.113
-2.52 -0.7 2.425
-2.645 0.041 3.387
-1.592 -1.721 1.268
-2.003 -1.142 3.367
-0.984 -2.263 2.097
-2.487 -0.785 0.321
-0.96 -2.23 0.303
-1.943 -1.202 -0.738
-2.131 -0.618 -0.861
-2.114 -0.682 -1.181
-1.927 -1.264 -1.052
-2.312 -0.441 -1.376
-2.121 -0.506 -1.916
-1.682 -1.348 -1.746
-1.897 0.192 -2.527
-1.864 -0.768 -1.888
-1.57 0.147 -2.691
-2.011 1.039 -2.18
-1.198 0.386 -3.152
-1.348 1.496 -2.696
-1.72 1.257 -2.235
-1.479 1.817 -1.75
-1.107 2.057 -2.211
-1.319 2.584 -1.178
-0.816 3.013 -1.267
-0.543 2.537 -2.312
0.466 3.148 -0.891
-0.048 3.337 -3.001
1.057 2.557 -0.305
0.892 2.689 -1.891
1.553 2.026 -1.234
0.737 2.845 0.68
1.539 1.918 0.039
1.22 2.206 1.024
0.406 3.093 0.833
1.112 2.426 2.108
0.748 2.699 2.276
-0.034 3.266 2.099
-0.687 3.194 3.654
0.006 2.617 4.044
-1.995 3.111 3.523
-0.58 2.815 3.881
-2.096 2.719 3.73
-1.061 1.806 4.483
-0.466 1.628 4.634
-2.128 2.66 3.763
-1.452 1.611 4.604
-2.373 2.347 3.982
-1.464 1.095 4.666
-0.48 1.041 4.705
-1.655 0.731 4.634
-0.333 0.517 4.869
-0.555 0.096 4.831
-0.878 -0.357 4.785
0.164 -1.171 5.088
0.507 -0.734 5.141
0.93 -2.454 3.923
1.043 -0.806 5.264
1.809 -2.089 4.099
1.037 -1.846 2.131
1.061 -1.813 0.337
1.48 -1.078 0.031
1.916 -1.481 2.307
2.335 -0.746 2.002
1.639 -0.712 -0.547
1.697 -0.118 0.66
1.842 0.216 0.134
1.085 -2.024 -1.812
2.201 -0.141 -1.444
1.67 -1.4 -2.657
-0.548 -1.409 -2.576
0.104 -0.811 -3.39
-0.822 -1.287 -2.506
-0.336 -0.591 -3.197
-0.616 -0.466 -3.125
-0.988 -0.705 -2.664
0.101 0.716 -4.098
0.516 0.418 -4.238
-0.398 1.946 -3.588
0.377 1.347 -4.4
0.117 1.987 -4.134
0.028 3.029 -3.665
0.9 3.106 -3.671
0.989 2.064 -4.14
0.819 3.383 -2.845
1.749 2.404 -3.353
1.668 2.681 -2.526
0.699 3.415 -2.782
1.123 2.627 -2.01
2.133 1.624 -1.992
2.194 2.159 -2.516
2.042 0.907 -1.262
2.428 1.273 -2.257
2.342 0.599 -1.57
1.976 0.918 0.014
1.83 1.363 -3.817
1.863 2.209 -3.379
1.103 1.869 -4.167
1.884 1.434 1.198
2.541 0.959 2.592
1.842 1.579 2.299
0.651 1.408 4.781
0.82 0.891 4.947
1.35 0.788 5.074
-3.94 1.181 0.843
-1.891 3.826 2.497
-2.589 1.578 4.495
-1.092 -1.939 4.665
0.786 -2.653 -0.834
3.668 -0.309 3.703
2.756 0.481 5.071
2.756 -1.099 5.071
2.093 -0.513 -4.015
1.2465 1.4935 3.54
0.924 2.098 3.1715
0.3285 2.0125 4.4125
0.3255 3.376 -2.8915
1.9455 0.8735 3.833
0.7995 3.2605 -3.2265
0.426 3.2215 -3.336
2.6485 0.72 3.8315
2.053 0.6345 5.0725
1.8625 -1.785 3.203
2.7385 -1.199 3.901
2.792 -0.895 3.005
1.54425 1.53625 2.9195
1.383 1.8385 2.73525
1.08525 1.79575 3.35575

CELLS 312 1248
3 0 1 2
3 2 1 3
3 1 4 5
3 5 4 6
3 4 7 8
3 8 7 9
3 7 10 11
3 11 10 12
3 10 13 14
3 14 13 15
3 13 16 17
3 17 16 18
3 16 19 20
3 20 19 21
3 19 22 23
3 23 22 24
3 22 0 25
3 25 0 26
3 25 27 24
3 24 27 28
3 27 26 29
3 29 26 2
3 29 30 28
3 28 30 31
3 30 32 33
3 33 32 34
3 32 35 36
3 36 35 37
3 35 3 38
3 38 3 5
3 38 39 37
3 37 39 40
3 39 6 41
3 41 6 8
3 41 42 40
3 40 42 43
3 42 44 45
3 45 44 46
3 44 47 48
3 48 47 49
3 47 9 50
3 50 9 11
3 50 51 49
3 49 51 52
3 51 12 53
3 53 12 14
3 53 54 52
3 52 54 55
3 54 56 57
3 56 58 59
3 59 58 60
3 58 61 62
3 62 61 63
3 61 64 65
3 65 64 66
3 64 15 67
3 67 15 17
3 67 68 66
3 66 68 69
3 68 70 71
3 71 70 72
3 70 18 72
3 72 18 20
3 71 73 69
3 69 73 74
3 73 75 76
3 76 75 77
3 75 21 77
3 77 21 23
3 76 78 74
3 74 78 79
3 78 80 81
3 81 80 82
3 80 31 83
3 83 31 33
3 83 84 82
3 82 84 85
3 84 86 87
3 87 86 88
3 86 89 88
3 89 34 90
3 90 34 36
3 90 91 92
3 92 91 93
3 91 94 95
3 95 94 96
3 94 97 98
3 98 97 99
3 97 100 99
3 99 100 101
3 100 102 103
3 103 102 104
3 102 43 105
3 105 43 45
3 105 46 104
3 104 46 48
3 103 106 101
3 101 106 107
3 106 108 109
3 109 108 110
3 108 55 111
3 111 55 57
3 111 112 110
3 110 112 113
3 112 114 115
3 115 114 116
3 114 117 118
3 118 117 59
3 118 119 116
3 116 119 120
3 119 121 122
3 122 121 123
3 121 60 124
3 124 60 62
3 124 96 123
3 123 96 98
3 122 125 120
3 120 125 126
3 125 107 127
3 127 107 109
3 127 113 126
3 126 113 115
3 95 128 93
3 93 128 129
3 128 63 130
3 130 63 65
3 131 79 132
3 132 79 81
3 132 85 133
3 133 85 87
3 26 0 2
3 5 3 1
3 8 6 4
3 11 9 7
3 14 12 10
3 17 15 13
3 20 18 16
3 23 21 19
3 25 24 22
3 29 28 27
3 33 31 30
3 36 34 32
3 38 37 35
3 41 40 39
3 45 43 42
3 48 46 44
3 50 49 47
3 53 52 51
3 57 55 54
3 59 117 56
3 62 60 58
3 65 63 61
3 67 66 64
3 71 69 68
3 76 74 73
3 81 79 78
3 83 82 80
3 87 85 84
3 90 92 89
3 95 93 91
3 98 96 94
3 103 101 100
3 105 104 102
3 109 107 106
3 111 110 108
3 115 113 112
3 118 116 114
3 122 120 119
3 124 123 121
3 127 126 125
3 130 129 128
3 132 133 131
3 0 22 134
3 0 134 4
3 0 4 1
3 4 134 7
3 7 134 13
3 7 13 10
3 13 134 16
3 16 134 19
3 19 134 22
3 3 35 2
3 2 35 32
3 2 32 30
3 2 30 29
3 6 39 38
3 6 38 5
3 9 47 42
3 9 42 8
3 8 42 41
3 42 47 44
3 12 51 11
3 11 51 50
3 15 64 56
3 15 56 54
3 15 54 53
3 15 53 14
3 56 64 61
3 56 61 58
3 70 68 135
3 70 135 18
3 18 135 17
3 17 135 67
3 67 135 68
3 75 73 72
3 75 72 20
3 75 20 21
3 72 73 71
3 24 28 136
3 24 136 23
3 23 136 77
3 77 136 76
3 76 136 78
3 78 136 80
3 80 136 31
3 31 136 28
3 26 27 25
3 34 89 86
3 34 86 137
3 34 137 33
3 33 137 83
3 83 137 84
3 84 137 86
3 37 40 36
3 36 40 43
3 36 43 138
3 36 138 90
3 90 138 91
3 91 138 97
3 91 97 94
3 97 138 100
3 100 138 43
3 100 43 102
3 46 105 45
3 49 52 108
3 49 108 48
3 48 108 106
3 48 106 104
3 104 106 103
3 108 52 55
3 60 121 119
3 60 119 118
3 60 118 59
3 63 128 62
3 62 128 124
3 124 128 96
3 96 128 95
3 66 69 65
3 131 74 79
3 82 85 81
3 81 85 132
3 139 140 141
3 139 93 129
3 140 87 141
3 141 87 88
3 101 107 142
3 101 142 99
3 99 142 98
3 98 142 123
3 123 142 122
3 122 142 125
3 125 142 107
3 110 113 109
3 109 113 127
3 116 120 115
3 115 120 126
3 143 131 129
3 69 144 65
3 144 69 145
3 143 145 131
3 131 145 74
3 145 69 74
3 117 146 56
3 56 146 57
3 133 147 131
3 131 147 129
3 112 148 114
3 114 148 117
3 117 148 146
3 148 149 146
3 148 112 149
3 146 149 57
3 57 149 111
3 149 112 111
3 129 150 139
3 139 150 140
3 140 150 151
3 150 147 151
3 150 129 147
3 151 147 133
3 140 151 87
3 151 133 87
3 92 152 89
3 89 152 88
3 88 153 141
3 141 153 139
3 139 153 154
3 153 152 154
3 153 88 152
3 154 152 92
3 139 154 93
3 154 92 93
3 130 155 129
3 155 143 129
3 144 156 65
3 65 156 130
3 130 156 155
3 156 157 155
3 156 144 157
3 155 157 143
3 143 157 145
3 145 157 144

CELL_TYPES 312
5
5
5
5
5
5
5
5
5
5
5
5
5
5
5
5
5
5
5
5
5
5
5
5
5
5
5
5
5
5
5
5
5
5
5
5
5
5
5
5
5
5
5
5
5
5
5
5
5
5
5
5
5
5
5
5
5
5
5
5
5
5
5
5
5
5
5
5
5
5
5
5
5
5
5
5
5
5
5
5
5
5
5
5
5
5
5
5
5
5
5
5
5
5
5
5
5
5
5
5
5
5
5
5
5
5
5
5
5
5
5
5
5
5
5
5
5
5
5
5
5
5
5
5
5
5
5
5
5
5
5
5
5
5
5
5
5
5
5
5
5
5
5
5
5
5
5
5
5
5
5
5
5
5
5
5
5
5
5
5
5
5
5
5
5
5
5
5
5
5
5
5
5
5
5
5
5
5
5
5
5
5
5
5
5
5
5
5
5
5
5
5
5
5
5
5
5
5
5
5
5
5
5
5
5
5
5
5
5
5
5
5
5
5
5
5
5
5
5
5
5
5
5
5
5
5
5
5
5
5
5
5
5
5
5
5
5
5
5
5
5
5
5
5
5
5
5
5
5
5
5
5
5
5
5
5
5
5
5
5
5
5
5
5
5
5
5
5
5
5
5
5
5
5
5
5
5
5
5
5
5
5
5
5
5
5
5
5
5
5
5
5
5
5
5
5
5
5
5
5
5
5
5
5
5
5
5
5
5
5
5
5

CELL_DATA 312
SCALARS cell_data_0 double
LOOKUP_TABLE default
3.42149623371e-07
1.39143341916e-06
1.38073596301e-06
2.21629882013e-06
1.74115591186e-05
2.77760386001e-05
3.04782331463e-06
4.25496869147e-06
1.07443106343e-06
1.93630985308e-06
2.28711341302e-06
1.14875639056e-06
3.42572402662e-07
9.90444109155e-07
2.19605682246e-06
6.46272879607e-07
1.1283545479e-07
9.22957397126e-07
8.93228174117e-07
1.21710972524e-06
1.80884482269e-06
7.70938290091e-07
2.42423740324e-06
7.57397050611e-06
3.66225974741e-05
0.000144685703639
1.72954880442e-05
9.6947389156e-06
5.31066963688e-07
1.37573624916e-06
3.11764541333e-06
5.74692067799e-07
3.77375105497e-06
1.36111680098e-06
4.6434964576e-06
2.40495901035e-05
5.60784244501e-06
9.82731305148e-06
1.49284826665e-05
1.29924833539e-05
8.92240313791e-06
2.02014628329e-06
7.93656532424e-07
4.93861692371e-06
2.34186496856e-06
3.27646861897e-06
6.86839351062e-06
3.5038768808e-05
0.000114227398543
5.71140479197e-06
1.7266997613e-05
1.01398327017e-05
1.49285686134e-05
2.75192987744e-05
2.58282684874e-05
3.2587084825e-06
8.40164168078e-06
2.48061154653e-05
4.66764559e-05
7.01373070226e-06
4.01689254988e-06
2.9432621613e-06
4.03920494062e-06
1.80141100252e-05
1.29355452044e-05
3.80639903237e-06
1.05559277829e-06
5.16185210493e-07
1.46351506206e-06
1.54170975307e-05
1.38280948017e-05
3.62603716008e-06
1.73795982971e-05
5.05552929337e-05
8.16107004933e-05
5.19100738299e-05
1.86878956181e-05
0.000246341474536
0.000472009077382
0.000411070350205
0.00010020150784
5.52415090549e-05
8.85942197792e-05
1.59219215644e-05
9.25046699824e-06
1.49173332399e-05
1.19354711622e-05
2.93708458656e-05
1.12915084349e-05
1.25857503705e-05
1.37412370935e-07
2.81101948505e-06
1.34786666598e-06
6.84577223543e-06
2.00229390052e-06
1.00159098627e-05
7.7510541874e-07
1.28389007739e-05
4.34936603039e-05
7.22074541798e-05
0.000151881586857
0.000254885286339
0.000271534340576
6.71330145456e-05
0.000173845747002
4.3946729731e-05
7.78907496358e-06
3.28063856036e-06
4.98418079216e-05
7.37268092133e-05
1.13085482414e-05
1.51743118858e-05
2.25195471495e-05
2.89207217497e-06
1.39207152162e-05
5.83401880308e-05
0.000101412425147
0.000123818988303
8.85434364715e-06
9.907800682e-06
6.9316573731e-05
6.38634057892e-05
7.48943004067e-06
5.31921181698e-05
8.73856490092e-07
6.05898528471e-05
1.33735411967e-06
1.9195758655e-05
3.47571140944e-05
9.45371855989e-06
1.18792042812e-06
6.56885816942e-06
6.50863178078e-06
1.11087825661e-05
8.30865888193e-07
9.52332493779e-06
1.63498530853e-06
2.20712346512e-06
1.56612834506e-06
7.06460649501e-07
2.76699920999e-05
1.52065436295e-05
2.91916817476e-06
1.52252098137e-06
5.44857352776e-06
5.06590965148e-06
3.63945908553e-06
6.47742853688e-07
3.0345567696e-05
3.71380013377e-05
1.48906688571e-06
2.1466383646e-05
1.85410469902e-05
5.07361970294e-06
9.10135247592e-06
1.47306511201e-05
2.07654566671e-05
2.82958224562e-05
7.24346130344e-05
3.56806117537e-06
2.89738406972e-06
1.56858671714e-06
3.12686553015e-06
6.60852790333e-05
7.12645978328e-05
0.000125894504925
8.61485509305e-05
7.45411697585e-05
5.30323367152e-06
8.81102562252e-05
3.00008038413e-05
4.14547787034e-06
1.55139830291e-06
1.61511870297e-07
4.88946353646e-07
1.39521211762e-05
1.32366770577e-05
1.10652444667e-06
2.00658754525e-06
1.18971353308e-06
8.38414264296e-08
6.29400410893e-07
7.95660275739e-06
1.63447066654e-05
3.43778375367e-07
1.63658806086e-06
9.61840779403e-08
2.7793479635e-05
3.92875927645e-05
1.93775351032e-06
6.16100405089e-07
1.29490880492e-06
1.23725123375e-05
1.66630897769e-06
8.44504750165e-06
1.77433996046e-06
4.33510153325e-06
1.09344840211e-05
4.96293940959e-06
1.46275437093e-06
3.97987651742e-07
4.87502540681e-06
1.10645517142e-05
1.09983505506e-05
1.21726323413e-07
2.88548088936e-07
1.00993666785e-06
1.06952969994e-05
2.50303613609e-06
2.22374381434e-06
3.54534810571e-06
1.84282125416e-06
6.6325127191e-06
1.04060560971e-06
1.42627661882e-05
5.25992218779e-06
9.77252117054e-07
5.5961772992e-05
0.000659934009873
8.01105749316e-06
4.4675082532e-05
0.000175594857025
9.76636587757e-05
5.84103093167e-06
2.41332936819e-06
6.96007459949e-05
5.83106759073e-05
2.84663020187e-05
4.4550983998e-05
1.1998232742e-05
2.64176399485e-05
1.53944688607e-05
3.18307615009e-06
2.43736604578e-05
1.14290287295e-05
6.66314796282e-06
6.47947394444e-05
1.07700940907e-05
3.36095822261e-07
1.91249891951e-05
1.62747734553e-06
4.11206161725e-05
8.63126235311e-07
1.44412989032e-05
1.24619739988e-05
7.77617320252e-06
2.69980881303e-06
7.84922683579e-05
3.20478402324e-05
2.70805695062e-05
1.47617747183e-05
0.000367826441077
0.000253910985999
8.78319040883e-05
0.000217985570356
1.19689402133e-05
1.49406660725e-05
1.93546193938e-05
6.96377317841e-05
3.00419747436e-05
5.76726495591e-05
4.7790207756e-05
0.000346475840698
9.06404972236e-05
0.000308384194261
0.000104151597138
7.38353304606e-05
0.000271916414151
0.000116548696953
0.000279740011513
5.49178535129e-05
0.000114075120482
1.63237416216e-05
0.000103324360167
9.65098811148e-05
9.21780802802e-05
7.50980654748e-06
1.75280301614e-05
2.54260805599e-05
0.000468810367326
4.7944998416e-05
6.26748058633e-05
0.000498970978026
0.000277118416928
0.000247207951505
0.000403380721764
0.000289285102568
0.000454602933091
0.00073968239258
2.6698298148e-05
0.000193269385966
9.7105670519e-05
4.38485101197e-06
2.78614973038e-06
0.000660878810098
0.000370886085702
0.000162172154815
4.1830704458e-05
0.000910361017928
4.40422582305e-05
0.000135385657198
5.22652710776e-05
2.52521452251e-05
0.000125722071568
0.000149748000582
0.000176400956835
0.00013614875802
0.000220258382467
0.00152474691987
0.000244375855418
0.00055701166185
0.000328057502687

