# vtk DataFile Version 3.0
File Name: Molecule/methanol/methanol_0.5-4.vtk
ASCII
DATASET UNSTRUCTURED_GRID
FIELD FieldData 1
TIME 1 1 double
0.0
POINTS 38 double
1.611 0.0 -0.359
0.773 -1.459 -0.275
1.403 0.0 -0.933
-0.903 -1.459 -0.108
0.639 -1.329 -0.857
-0.887 -1.329 -0.705
-1.742 0.0 -0.025
-1.651 0.0 -0.629
-0.903 1.459 -0.108
-0.887 1.329 -0.705
0.773 1.459 -0.275
0.639 1.329 -0.857
1.907 0.0 0.656
1.354 1.335 0.656
1.354 0.412 1.925
1.354 -1.08 1.44
0.019 1.335 1.99
0.019 -0.0 2.543
0.019 -1.335 1.99
0.019 -1.888 0.656
0.019 1.888 0.656
-1.316 0.412 1.925
-1.316 -1.08 1.44
0.648 0.411 -2.001
-0.887 -1.075 -1.519
-0.887 0.411 -2.001
1.021 -0.6645 -0.895
0.6435 -0.459 -1.429
0.8345 -0.12675 -1.448
1.02325 -0.2295 -1.181
0.83225 -0.56175 -1.162
1.0255 0.2055 -1.467
0.93 0.039375 -1.4575
1.024375 -0.012 -1.324
0.928875 -0.178125 -1.3145
1.021 0.6645 -0.895
1.21425 0.10275 -1.2
0.83225 0.76725 -1.162

CELLS 72 288
3 0 1 2
3 1 3 4
3 4 3 5
3 3 6 5
3 5 6 7
3 6 8 7
3 7 8 9
3 8 10 9
3 9 10 11
3 10 0 11
3 12 13 14
3 12 14 15
3 14 13 16
3 14 16 17
3 15 14 17
3 15 17 18
3 15 18 19
3 13 20 16
3 17 16 21
3 17 21 22
3 18 17 22
3 19 18 22
3 19 22 3
3 19 3 1
3 19 1 15
3 15 1 12
3 12 1 0
3 12 0 13
3 13 0 10
3 13 10 20
3 20 10 8
3 20 8 21
3 20 21 16
3 21 8 6
3 21 6 22
3 22 6 3
3 23 24 25
3 23 25 11
3 24 4 5
3 24 5 7
3 24 7 25
3 25 7 9
3 25 9 11
3 4 26 1
3 1 26 2
3 23 27 24
3 27 4 24
3 23 28 27
3 29 26 30
3 28 30 27
3 26 29 2
3 27 30 4
3 30 26 4
3 31 32 23
3 32 28 23
3 31 33 32
3 33 34 32
3 33 29 34
3 32 34 28
3 28 34 30
3 30 34 29
3 29 33 2
3 2 35 0
3 0 35 11
3 2 36 35
3 36 37 35
3 36 31 37
3 35 37 11
3 11 37 23
3 37 31 23
3 31 36 33
3 33 36 2

CELL_TYPES 72
5
5
5
5
5
5
5
5
5
5
5
5
5
5
5
5
5
5
5
5
5
5
5
5
5
5
5
5
5
5
5
5
5
5
5
5
5
5
5
5
5
5
5
5
5
5
5
5
5
5
5
5
5
5
5
5
5
5
5
5
5
5
5
5
5
5
5
5
5
5
5
5

CELL_DATA 72
SCALARS cell_data_0 double
LOOKUP_TABLE default
4.1604844652e-06
4.9092385431e-07
2.86830940396e-06
3.43000128084e-06
4.67701816087e-06
1.26376421088e-06
8.1962456638e-07
9.02394835932e-07
2.87735054278e-07
2.50633340988e-06
1.11176531981e-07
8.71198907768e-07
9.66308208768e-07
1.65522088766e-07
4.55439609649e-07
6.01414698593e-07
3.80967795079e-07
3.38307962378e-09
1.02523230406e-06
7.20330757854e-07
2.74337924366e-07
2.84286222689e-07
6.47188042156e-08
6.3889951042e-07
5.39109078531e-07
1.95162880699e-06
3.29176398143e-07
5.76327870304e-07
7.19015983687e-07
2.48429227044e-08
1.415369575e-06
1.19303251319e-06
2.349700459e-07
4.52102758708e-06
6.21708977139e-07
1.70749571067e-06
1.98119729417e-05
5.98976144234e-06
9.27722329135e-06
4.86613129688e-06
1.3630050073e-05
1.13267607697e-06
1.67593559075e-05
1.70282369745e-07
1.03186086616e-05
4.23416063911e-05
1.72464519026e-05
5.06298538735e-06
6.39234149581e-06
2.9250106711e-05
4.53978830923e-06
4.66432863483e-06
1.05429631373e-06
1.19993854223e-07
9.83294121691e-06
9.03318976689e-06
2.40157590417e-05
7.79422631304e-06
1.19189117745e-05
1.04106532756e-05
7.15888967037e-06
1.19391030917e-05
9.34678624334e-06
1.41766412689e-07
1.30891844634e-06
1.19406273383e-05
2.29090683052e-05
2.3740889184e-06
2.30980143823e-06
4.91283616063e-06
1.59090772239e-05
1.86585810929e-05

