# vtk DataFile Version 3.0
File Name: Molecule/methanol/methanol_1.0-5.vtk
ASCII
DATASET UNSTRUCTURED_GRID
FIELD FieldData 1
TIME 1 1 double
0.0
POINTS 66 double
1.611 0.0 -0.359
1.12 -1.191 -0.31
1.403 0.0 -0.933
-0.065 -1.684 -0.192
0.956 -1.085 -0.888
-0.124 -1.534 -0.781
-1.251 -1.191 -0.074
-1.204 -1.085 -0.673
-1.742 0.0 -0.025
-1.651 0.0 -0.629
-1.251 1.191 -0.074
-1.204 1.085 -0.673
-0.065 1.684 -0.192
-0.124 1.534 -0.781
1.12 1.191 -0.31
0.956 1.085 -0.888
1.907 0.0 0.656
1.546 1.109 0.656
1.546 0.555 1.616
1.546 -0.555 1.616
1.546 -1.109 0.656
0.602 1.452 1.711
0.602 0.555 2.363
0.602 -0.555 2.363
0.602 -1.452 1.711
0.602 -1.795 0.656
0.602 1.795 0.656
-0.564 1.452 1.711
-0.564 0.555 2.363
-0.564 -0.555 2.363
-0.564 -1.452 1.711
-0.564 -1.795 0.656
-0.564 1.795 0.656
-1.508 1.109 0.656
-1.508 0.555 1.616
-1.508 -0.555 1.616
-1.508 -1.109 0.656
-1.868 -0.0 0.656
-0.12 0.267 -2.249
-0.12 -0.768 -2.067
-1.205 -0.543 -1.677
-1.205 0.543 -1.677
-0.12 1.176 -1.724
1.1845 0.2715 -1.305
1.07525 0.13575 -1.491
0.966 0.543 -1.677
0.966 0.0 -1.677
1.1845 0.0 -1.305
1.07525 -0.13575 -1.491
1.1845 -0.2715 -1.305
0.966 -0.543 -1.677
1.1795 -0.5425 -0.9105
1.07025 -0.67825 -1.0965
1.29375 -0.13575 -1.119
1.1795 0.5425 -0.9105
0.423 -0.138 -1.963
0.423 0.1335 -1.963
0.966 -0.2715 -1.677
1.29375 0.13575 -1.119
1.07025 0.67825 -1.0965
0.423 0.8595 -1.7005
0.418 1.1305 -1.306
0.961 0.814 -1.2825
0.961 -0.814 -1.2825
0.423 -0.6555 -1.872
0.418 -0.9265 -1.4775

CELLS 128 512
3 0 1 2
3 1 3 4
3 4 3 5
3 3 6 5
3 5 6 7
3 6 8 7
3 7 8 9
3 8 10 9
3 9 10 11
3 10 12 11
3 11 12 13
3 12 14 13
3 13 14 15
3 14 0 15
3 16 17 18
3 16 18 19
3 16 19 20
3 18 17 21
3 18 21 22
3 18 22 23
3 19 18 23
3 19 23 24
3 20 19 24
3 20 24 25
3 17 26 21
3 21 26 27
3 21 27 28
3 22 21 28
3 22 28 29
3 23 22 29
3 24 23 29
3 24 29 30
3 24 30 31
3 25 24 31
3 26 32 27
3 27 32 33
3 27 33 34
3 28 27 34
3 28 34 35
3 29 28 35
3 30 29 35
3 30 35 36
3 31 30 36
3 34 33 37
3 35 34 37
3 36 35 37
3 36 37 8
3 36 8 6
3 36 6 31
3 31 6 3
3 31 3 25
3 25 3 1
3 25 1 20
3 20 1 0
3 20 0 16
3 16 0 17
3 17 0 14
3 17 14 26
3 26 14 12
3 26 12 32
3 32 12 10
3 32 10 33
3 33 10 8
3 33 8 37
3 38 39 40
3 38 40 41
3 42 38 41
3 42 41 11
3 42 11 13
3 39 5 40
3 40 5 7
3 40 7 9
3 40 9 41
3 41 9 11
3 43 44 45
3 45 44 46
3 43 47 44
3 47 48 44
3 47 49 48
3 44 48 46
3 48 49 50
3 4 51 1
3 1 51 2
3 49 52 50
3 49 53 52
3 53 51 52
3 53 2 51
3 52 51 4
3 2 53 47
3 47 53 49
3 2 54 0
3 0 54 15
3 38 55 39
3 46 56 45
3 45 56 38
3 46 57 56
3 57 55 56
3 57 50 55
3 56 55 38
3 2 58 54
3 58 59 54
3 58 43 59
3 54 59 15
3 59 43 45
3 43 58 47
3 47 58 2
3 50 57 48
3 48 57 46
3 42 60 38
3 38 60 45
3 15 61 13
3 13 61 42
3 42 61 60
3 61 62 60
3 61 15 62
3 60 62 45
3 50 63 64
3 63 65 64
3 63 4 65
3 64 65 39
3 39 65 5
3 65 4 5
3 4 63 52
3 52 63 50
3 50 64 55
3 55 64 39
3 45 62 59
3 59 62 15

CELL_TYPES 128
5
5
5
5
5
5
5
5
5
5
5
5
5
5
5
5
5
5
5
5
5
5
5
5
5
5
5
5
5
5
5
5
5
5
5
5
5
5
5
5
5
5
5
5
5
5
5
5
5
5
5
5
5
5
5
5
5
5
5
5
5
5
5
5
5
5
5
5
5
5
5
5
5
5
5
5
5
5
5
5
5
5
5
5
5
5
5
5
5
5
5
5
5
5
5
5
5
5
5
5
5
5
5
5
5
5
5
5
5
5
5
5
5
5
5
5
5
5
5
5
5
5
5
5
5
5
5
5

CELL_DATA 128
SCALARS cell_data_0 double
LOOKUP_TABLE default
2.38917792733e-06
2.20278926094e-07
1.45414616887e-08
2.90726413926e-07
1.51842622474e-06
6.88984943082e-07
5.8984342241e-07
5.47424459531e-07
4.96908067693e-08
3.76775686603e-07
3.01768229259e-08
1.36737999101e-07
1.0098099448e-06
2.83332036394e-06
4.47948446922e-08
2.41967000181e-08
6.15890670609e-08
4.56544420166e-08
1.41861241897e-07
1.120711315e-07
1.82798145181e-07
9.9782422772e-08
1.10467428683e-08
2.54736716587e-07
5.35437428477e-08
1.10745282973e-08
5.14387186968e-08
3.39582786467e-08
2.83934887216e-08
9.41710338017e-09
3.25167669138e-08
9.72528556412e-08
1.08755389288e-07
3.12565795001e-08
3.45145373099e-08
8.53280859116e-08
9.70566257605e-08
9.03725200401e-08
1.40747363064e-07
2.20051644361e-08
9.30640000849e-08
9.68602728765e-08
3.9647718707e-08
1.08096810987e-07
2.57449695388e-08
8.98507981826e-08
1.71760122224e-07
4.81003258709e-07
6.21787039649e-08
6.18345237386e-07
7.68735036534e-08
1.97472226129e-07
3.23406652877e-07
1.32002740297e-06
2.30938189272e-07
1.17335009339e-08
1.70048968506e-07
5.22880720644e-08
2.83111647092e-07
4.76767989417e-08
6.09844057532e-07
1.01214201573e-08
5.7155095991e-07
1.70610984828e-07
8.90817031162e-07
2.03204500617e-06
5.65170700009e-07
4.34312139849e-06
1.54614833269e-06
5.4972930059e-06
2.61261188317e-06
1.29735917519e-06
1.36192925503e-06
6.19370314786e-07
2.86915373965e-06
3.23258376071e-06
3.25309355848e-06
7.79663699225e-06
3.5449152611e-06
2.0521157535e-06
1.4952509098e-06
4.6052756038e-07
6.34998214197e-06
3.77258632452e-06
6.95767388036e-07
4.42728864869e-06
2.7310170667e-06
1.4691978536e-07
3.72956172812e-06
2.3155245464e-06
1.89987105041e-06
1.04939759024e-06
2.19775529458e-07
5.6529593556e-06
2.34309764287e-06
1.46718092505e-06
3.0080749227e-06
1.37441297282e-06
9.46338905269e-08
6.31351182236e-07
3.1015185852e-06
2.86555455205e-06
1.15507242855e-06
2.81334103861e-06
1.54910939041e-06
2.79859354146e-06
2.39705382443e-06
2.43020217977e-06
2.04510717544e-07
2.39539838057e-06
8.01169656217e-07
7.02806737338e-07
5.64848549575e-08
6.10049477806e-07
5.12394450612e-07
1.51549319617e-06
5.88752582651e-07
1.0054539867e-06
6.3009497663e-07
1.07663592262e-07
3.29986711313e-07
3.87432467492e-07
1.0913399362e-06
6.99924471475e-08
2.49156312698e-06
2.79235288044e-07
4.70920126966e-07
5.85075943388e-07

