# vtk DataFile Version 3.0
File Name: Molecule/methanol/methanol_1.0-0.vtk
ASCII
DATASET UNSTRUCTURED_GRID
FIELD FieldData 1
TIME 1 1 double
0.0
POINTS 45 double
1.611 0.0 -0.359
1.12 -1.191 -0.31
1.403 0.0 -0.933
0.956 -1.085 -0.888
-0.065 -1.684 -0.192
-0.124 -1.534 -0.781
-1.251 -1.191 -0.074
-1.204 -1.085 -0.673
-1.742 0.0 -0.025
-1.651 0.0 -0.629
-1.251 1.191 -0.074
-1.204 1.085 -0.673
-0.065 1.684 -0.192
-0.124 1.534 -0.781
1.12 1.191 -0.31
0.956 1.085 -0.888
1.907 0.0 0.656
1.546 1.109 0.656
1.546 0.555 1.616
1.546 -0.555 1.616
1.546 -1.109 0.656
0.602 1.452 1.711
0.602 0.555 2.363
0.602 -0.555 2.363
0.602 -1.452 1.711
0.602 -1.795 0.656
0.602 1.795 0.656
-0.564 1.452 1.711
-0.564 0.555 2.363
-0.564 -0.555 2.363
-0.564 -1.452 1.711
-0.564 -1.795 0.656
-0.564 1.795 0.656
-1.508 1.109 0.656
-1.508 0.555 1.616
-1.508 -0.555 1.616
-1.508 -1.109 0.656
-1.868 -0.0 0.656
0.966 -0.543 -1.677
-0.12 -0.768 -2.067
-0.12 0.267 -2.249
0.966 0.543 -1.677
-0.12 1.176 -1.724
-1.205 -0.543 -1.677
-1.205 0.543 -1.677

CELLS 86 344
3 0 1 2
3 2 1 3
3 1 4 3
3 3 4 5
3 4 6 5
3 5 6 7
3 6 8 7
3 7 8 9
3 8 10 9
3 9 10 11
3 10 12 11
3 11 12 13
3 12 14 13
3 13 14 15
3 14 0 15
3 15 0 2
3 16 17 18
3 16 18 19
3 16 19 20
3 18 17 21
3 18 21 22
3 18 22 23
3 19 18 23
3 19 23 24
3 20 19 24
3 20 24 25
3 17 26 21
3 21 26 27
3 21 27 28
3 22 21 28
3 22 28 29
3 23 22 29
3 24 23 29
3 24 29 30
3 24 30 31
3 25 24 31
3 26 32 27
3 27 32 33
3 27 33 34
3 28 27 34
3 28 34 35
3 29 28 35
3 30 29 35
3 30 35 36
3 31 30 36
3 34 33 37
3 35 34 37
3 36 35 37
3 36 37 8
3 36 8 6
3 36 6 31
3 31 6 4
3 31 4 25
3 25 4 1
3 25 1 20
3 20 1 0
3 20 0 16
3 16 0 17
3 17 0 14
3 17 14 26
3 26 14 12
3 26 12 32
3 32 12 10
3 32 10 33
3 33 10 8
3 33 8 37
3 38 39 40
3 41 38 40
3 41 40 42
3 40 39 43
3 40 43 44
3 42 40 44
3 42 44 11
3 42 11 13
3 42 13 15
3 42 15 41
3 41 15 2
3 41 2 38
3 38 2 3
3 38 3 39
3 39 3 5
3 39 5 43
3 43 5 7
3 43 7 9
3 43 9 44
3 44 9 11

CELL_TYPES 86
5
5
5
5
5
5
5
5
5
5
5
5
5
5
5
5
5
5
5
5
5
5
5
5
5
5
5
5
5
5
5
5
5
5
5
5
5
5
5
5
5
5
5
5
5
5
5
5
5
5
5
5
5
5
5
5
5
5
5
5
5
5
5
5
5
5
5
5
5
5
5
5
5
5
5
5
5
5
5
5
5
5
5
5
5
5

CELL_DATA 86
SCALARS cell_data_0 double
LOOKUP_TABLE default
2.25777994942e-05
7.6919614707e-06
5.45796805252e-09
3.05124746247e-07
7.30929214365e-07
1.46506977129e-06
2.64582280741e-07
3.86793119809e-07
1.2581064619e-07
5.49034949046e-07
4.08548429395e-07
5.98835702286e-07
6.47292077536e-07
1.00281105901e-06
5.60874085418e-06
1.20144472008e-05
5.63914394935e-07
4.14945273055e-08
8.06129614148e-07
9.2163654493e-08
4.67472192024e-08
8.46857255202e-08
4.46095183822e-07
1.33078445654e-07
2.34661509888e-07
7.9209293004e-07
9.76522190228e-08
1.01273863226e-07
5.1378094923e-08
3.23565543902e-08
4.55632056066e-08
1.0167695416e-07
4.10560585415e-08
1.40577396395e-07
2.1709307096e-07
1.56545812975e-08
3.85308698057e-08
8.5707361131e-08
9.96264238241e-08
1.11927322234e-07
1.37058625831e-07
5.09371692372e-08
1.18368075853e-07
7.6379375758e-08
4.12660927912e-08
8.89545638592e-08
2.68663315811e-08
8.49508737625e-08
3.60356339377e-08
5.52365651209e-07
2.16097457385e-07
8.26771948342e-07
1.76843287891e-07
1.89781584567e-07
7.75735291871e-07
5.13782459862e-06
9.38304975888e-07
1.64646305222e-06
1.54785012369e-06
3.57779924167e-07
2.89052254868e-07
6.15021482883e-09
5.06688451213e-07
3.0087211079e-08
7.59571859328e-07
1.05237912981e-07
4.97344992965e-06
2.70748812672e-05
5.00671495825e-06
7.7220010296e-06
7.42653810395e-07
7.05845643345e-06
2.57466464211e-06
4.19906092005e-07
2.09191682389e-06
5.07481651816e-07
3.04440964753e-05
0.000165478656963
2.94224193701e-05
3.70050590338e-07
3.72258464554e-06
5.38113742835e-06
5.77914220378e-06
1.64950698219e-06
3.16304482723e-06
2.0321455514e-06

