# vtk DataFile Version 3.0
File Name: Molecule/methanol/methanol_1.0-2.vtk
ASCII
DATASET UNSTRUCTURED_GRID
FIELD FieldData 1
TIME 1 1 double
0.0
POINTS 51 double
1.611 0.0 -0.359
1.12 -1.191 -0.31
1.403 0.0 -0.933
0.956 -1.085 -0.888
-0.065 -1.684 -0.192
-0.124 -1.534 -0.781
-1.251 -1.191 -0.074
-1.204 -1.085 -0.673
-1.742 0.0 -0.025
-1.651 0.0 -0.629
-1.251 1.191 -0.074
-1.204 1.085 -0.673
-0.065 1.684 -0.192
-0.124 1.534 -0.781
1.12 1.191 -0.31
0.956 1.085 -0.888
1.907 0.0 0.656
1.546 1.109 0.656
1.546 0.555 1.616
1.546 -0.555 1.616
1.546 -1.109 0.656
0.602 1.452 1.711
0.602 0.555 2.363
0.602 -0.555 2.363
0.602 -1.452 1.711
0.602 -1.795 0.656
0.602 1.795 0.656
-0.564 1.452 1.711
-0.564 0.555 2.363
-0.564 -0.555 2.363
-0.564 -1.452 1.711
-0.564 -1.795 0.656
-0.564 1.795 0.656
-1.508 1.109 0.656
-1.508 0.555 1.616
-1.508 -0.555 1.616
-1.508 -1.109 0.656
-1.868 -0.0 0.656
0.966 -0.543 -1.677
-0.12 -0.768 -2.067
-0.12 0.267 -2.249
0.966 0.543 -1.677
-0.12 1.176 -1.724
-1.205 -0.543 -1.677
-1.205 0.543 -1.677
0.966 0.0 -1.677
1.1845 0.2715 -1.305
1.1845 -0.2715 -1.305
1.07525 0.13575 -1.491
1.1845 0.0 -1.305
1.07525 -0.13575 -1.491

CELLS 98 392
3 0 1 2
3 2 1 3
3 1 4 3
3 3 4 5
3 4 6 5
3 5 6 7
3 6 8 7
3 7 8 9
3 8 10 9
3 9 10 11
3 10 12 11
3 11 12 13
3 12 14 13
3 13 14 15
3 14 0 15
3 15 0 2
3 16 17 18
3 16 18 19
3 16 19 20
3 18 17 21
3 18 21 22
3 18 22 23
3 19 18 23
3 19 23 24
3 20 19 24
3 20 24 25
3 17 26 21
3 21 26 27
3 21 27 28
3 22 21 28
3 22 28 29
3 23 22 29
3 24 23 29
3 24 29 30
3 24 30 31
3 25 24 31
3 26 32 27
3 27 32 33
3 27 33 34
3 28 27 34
3 28 34 35
3 29 28 35
3 30 29 35
3 30 35 36
3 31 30 36
3 34 33 37
3 35 34 37
3 36 35 37
3 36 37 8
3 36 8 6
3 36 6 31
3 31 6 4
3 31 4 25
3 25 4 1
3 25 1 20
3 20 1 0
3 20 0 16
3 16 0 17
3 17 0 14
3 17 14 26
3 26 14 12
3 26 12 32
3 32 12 10
3 32 10 33
3 33 10 8
3 33 8 37
3 38 39 40
3 41 40 42
3 40 39 43
3 40 43 44
3 42 40 44
3 42 44 11
3 42 11 13
3 42 13 15
3 42 15 41
3 38 3 39
3 39 3 5
3 39 5 43
3 43 5 7
3 43 7 9
3 43 9 44
3 44 9 11
3 41 45 40
3 45 38 40
3 2 46 15
3 15 46 41
3 38 47 3
3 47 2 3
3 46 48 41
3 41 48 45
3 46 49 48
3 49 50 48
3 49 47 50
3 48 50 45
3 47 49 2
3 2 49 46
3 45 50 38
3 50 47 38

CELL_TYPES 98
5
5
5
5
5
5
5
5
5
5
5
5
5
5
5
5
5
5
5
5
5
5
5
5
5
5
5
5
5
5
5
5
5
5
5
5
5
5
5
5
5
5
5
5
5
5
5
5
5
5
5
5
5
5
5
5
5
5
5
5
5
5
5
5
5
5
5
5
5
5
5
5
5
5
5
5
5
5
5
5
5
5
5
5
5
5
5
5
5
5
5
5
5
5
5
5
5
5

CELL_DATA 98
SCALARS cell_data_0 double
LOOKUP_TABLE default
7.19977102989e-06
5.35451632766e-06
1.40655208598e-07
9.13872593425e-08
1.37062060759e-07
1.68181600547e-06
6.60468606769e-07
2.32857379168e-07
3.50328711326e-07
3.12698266491e-07
2.70151757493e-07
1.94214533182e-07
1.55520617918e-07
9.85653221049e-07
2.6383480761e-06
8.17017689682e-06
4.5565238626e-08
5.76305966237e-08
1.27505253248e-07
2.59340044897e-08
1.41741438766e-07
1.05883521493e-07
2.09567284624e-07
6.65222067133e-08
2.29422393458e-08
3.56215639077e-07
3.68769504636e-08
2.15376299588e-08
5.2211958794e-08
3.56668879545e-08
3.84721328565e-08
8.40064335368e-10
4.46938086365e-08
1.01329550932e-07
1.38816182288e-07
3.43413621488e-08
3.91456337721e-08
8.5934032133e-08
9.56932881241e-08
8.9364167609e-08
1.40481388428e-07
2.74484714163e-08
1.02203787116e-07
9.24820173711e-08
4.04629370838e-08
1.03107507758e-07
2.65488467088e-08
8.66536085956e-08
1.34692994383e-07
5.31209015317e-07
8.55859509786e-08
7.06030867902e-07
1.08892709213e-07
2.03355062393e-07
4.87407312843e-07
1.90758141347e-06
1.46748389979e-07
1.70495201655e-07
2.04223765066e-07
5.82503083127e-09
2.85512464651e-07
4.45107516405e-08
6.27398838844e-07
6.40747004344e-09
6.35671568203e-07
1.48431150034e-07
6.82315126589e-06
5.91724518869e-06
2.97882609971e-06
1.99580821636e-07
2.62692008236e-06
4.56229317201e-06
1.47994841259e-06
7.22916017684e-08
7.87081885463e-06
8.65530786599e-06
2.0447648904e-07
6.52787437991e-06
3.15442692103e-06
1.17665752392e-06
6.06226179771e-07
2.86546167598e-07
9.09550641645e-06
1.5747768685e-05
1.48541575041e-05
8.51449012566e-07
4.43225100033e-07
1.8681954e-05
3.55956737001e-06
1.24219842432e-06
8.6699623433e-07
7.65681115131e-06
1.72801762607e-06
2.29826684765e-06
3.30311067465e-06
4.35538556191e-06
2.28340831811e-06
4.02198386835e-06

