# vtk DataFile Version 3.0
File Name: Molecule/methanol/methanol_0.5-0.vtk
ASCII
DATASET UNSTRUCTURED_GRID
FIELD FieldData 1
TIME 1 1 double
0.0
POINTS 26 double
1.611 0.0 -0.359
0.773 -1.459 -0.275
1.403 0.0 -0.933
0.639 -1.329 -0.857
-0.903 -1.459 -0.108
-0.887 -1.329 -0.705
-1.742 0.0 -0.025
-1.651 0.0 -0.629
-0.903 1.459 -0.108
-0.887 1.329 -0.705
0.773 1.459 -0.275
0.639 1.329 -0.857
1.907 0.0 0.656
1.354 1.335 0.656
1.354 0.412 1.925
1.354 -1.08 1.44
0.019 1.335 1.99
0.019 -0.0 2.543
0.019 -1.335 1.99
0.019 -1.888 0.656
0.019 1.888 0.656
-1.316 0.412 1.925
-1.316 -1.08 1.44
0.648 0.411 -2.001
-0.887 -1.075 -1.519
-0.887 0.411 -2.001

CELLS 48 192
3 0 1 2
3 2 1 3
3 1 4 3
3 3 4 5
3 4 6 5
3 5 6 7
3 6 8 7
3 7 8 9
3 8 10 9
3 9 10 11
3 10 0 11
3 11 0 2
3 12 13 14
3 12 14 15
3 14 13 16
3 14 16 17
3 15 14 17
3 15 17 18
3 15 18 19
3 13 20 16
3 17 16 21
3 17 21 22
3 18 17 22
3 19 18 22
3 19 22 4
3 19 4 1
3 19 1 15
3 15 1 12
3 12 1 0
3 12 0 13
3 13 0 10
3 13 10 20
3 20 10 8
3 20 8 21
3 20 21 16
3 21 8 6
3 21 6 22
3 22 6 4
3 23 24 25
3 23 25 11
3 23 11 2
3 23 2 3
3 23 3 24
3 24 3 5
3 24 5 7
3 24 7 25
3 25 7 9
3 25 9 11

CELL_TYPES 48
5
5
5
5
5
5
5
5
5
5
5
5
5
5
5
5
5
5
5
5
5
5
5
5
5
5
5
5
5
5
5
5
5
5
5
5
5
5
5
5
5
5
5
5
5
5
5
5

CELL_DATA 48
SCALARS cell_data_0 double
LOOKUP_TABLE default
5.57139731686e-05
1.58779119741e-05
2.20837265934e-06
1.4215064526e-06
8.41437189331e-06
9.54640332359e-06
1.61725340102e-06
5.39455212419e-06
2.73708816167e-06
1.70207732296e-07
9.41932380445e-06
4.28729090564e-05
2.68261075728e-06
2.99543613405e-06
1.00742195344e-06
9.40890588007e-07
8.83724026984e-07
3.98614104115e-07
1.32323087881e-06
1.84685010934e-07
1.54591168834e-06
9.30205193267e-07
8.00047350155e-07
4.93553612459e-07
5.04885512698e-07
2.084017758e-07
1.92867246168e-06
3.63488179102e-06
1.2995263604e-05
4.85369187151e-06
3.64438039346e-06
6.73066518619e-07
2.0741508238e-06
1.13588946717e-06
1.10146179116e-07
3.61507194078e-06
5.93240445286e-07
1.71965745478e-06
4.85270513794e-05
1.46973669924e-05
0.000148099025152
0.00075290281901
6.56814799663e-05
7.79026405531e-06
5.46366781231e-06
3.47131700937e-05
1.3360278736e-06
1.29540889622e-05

