# vtk DataFile Version 3.0
File Name: Molecule/methanol/methanol_0.5-2.vtk
ASCII
DATASET UNSTRUCTURED_GRID
FIELD FieldData 1
TIME 1 1 double
0.0
POINTS 32 double
1.611 0.0 -0.359
0.773 -1.459 -0.275
1.403 0.0 -0.933
-0.903 -1.459 -0.108
0.639 -1.329 -0.857
-0.887 -1.329 -0.705
-1.742 0.0 -0.025
-1.651 0.0 -0.629
-0.903 1.459 -0.108
-0.887 1.329 -0.705
0.773 1.459 -0.275
0.639 1.329 -0.857
1.907 0.0 0.656
1.354 1.335 0.656
1.354 0.412 1.925
1.354 -1.08 1.44
0.019 1.335 1.99
0.019 -0.0 2.543
0.019 -1.335 1.99
0.019 -1.888 0.656
0.019 1.888 0.656
-1.316 0.412 1.925
-1.316 -1.08 1.44
0.648 0.411 -2.001
-0.887 -1.075 -1.519
-0.887 0.411 -2.001
1.021 -0.6645 -0.895
1.0255 0.2055 -1.467
0.6435 -0.459 -1.429
0.8345 -0.12675 -1.448
1.02325 -0.2295 -1.181
0.83225 -0.56175 -1.162

CELLS 60 240
3 0 1 2
3 1 3 4
3 4 3 5
3 3 6 5
3 5 6 7
3 6 8 7
3 7 8 9
3 8 10 9
3 9 10 11
3 10 0 11
3 11 0 2
3 12 13 14
3 12 14 15
3 14 13 16
3 14 16 17
3 15 14 17
3 15 17 18
3 15 18 19
3 13 20 16
3 17 16 21
3 17 21 22
3 18 17 22
3 19 18 22
3 19 22 3
3 19 3 1
3 19 1 15
3 15 1 12
3 12 1 0
3 12 0 13
3 13 0 10
3 13 10 20
3 20 10 8
3 20 8 21
3 20 21 16
3 21 8 6
3 21 6 22
3 22 6 3
3 23 24 25
3 23 25 11
3 24 4 5
3 24 5 7
3 24 7 25
3 25 7 9
3 25 9 11
3 4 26 1
3 1 26 2
3 2 27 11
3 11 27 23
3 23 28 24
3 28 4 24
3 27 29 23
3 23 29 28
3 27 30 29
3 30 31 29
3 30 26 31
3 29 31 28
3 26 30 2
3 2 30 27
3 28 31 4
3 31 26 4

CELL_TYPES 60
5
5
5
5
5
5
5
5
5
5
5
5
5
5
5
5
5
5
5
5
5
5
5
5
5
5
5
5
5
5
5
5
5
5
5
5
5
5
5
5
5
5
5
5
5
5
5
5
5
5
5
5
5
5
5
5
5
5
5
5

CELL_DATA 60
SCALARS cell_data_0 double
LOOKUP_TABLE default
1.35381511016e-05
6.75629392956e-07
3.1515186119e-06
3.28768669644e-06
4.01293248619e-06
8.87417055623e-07
4.40022346867e-07
2.28396098837e-07
4.7551509904e-07
3.10205565287e-06
1.15064355231e-05
2.35079386301e-07
9.49647951815e-07
9.43531930961e-07
1.83163990975e-07
4.97323285722e-07
5.9319451777e-07
4.08747843462e-07
2.02179397099e-08
1.05193300904e-06
7.04380846732e-07
3.01352976437e-07
2.94329871309e-07
6.81969175186e-08
5.72499919453e-07
5.94826391134e-07
2.09476471687e-06
1.02630851819e-06
2.88014868186e-08
5.84694971806e-07
8.57048538965e-08
1.58085856269e-06
1.1852055676e-06
1.72894510614e-07
4.60279468311e-06
6.29659714138e-07
1.75971343801e-06
1.53285202648e-05
3.00532958278e-06
8.39361760246e-06
5.48855294635e-06
1.07272198515e-05
1.77684359668e-06
1.52943787778e-05
1.11483951975e-06
1.13798597429e-05
6.38505898367e-05
3.78878682317e-06
4.19868511858e-05
1.85383435873e-05
5.72952095602e-05
3.09799773435e-06
8.29380734012e-05
4.571919911e-05
8.01819284576e-06
2.59265420515e-05
3.80414987379e-05
4.29284814646e-05
3.35780090015e-06
2.91579891507e-06

