# vtk DataFile Version 3.0
File Name: Molecule/methanol/methanol_0.5-5.vtk
ASCII
DATASET UNSTRUCTURED_GRID
FIELD FieldData 1
TIME 1 1 double
0.0
POINTS 41 double
1.611 0.0 -0.359
0.773 -1.459 -0.275
1.403 0.0 -0.933
-0.903 -1.459 -0.108
0.639 -1.329 -0.857
-0.887 -1.329 -0.705
-1.742 0.0 -0.025
-1.651 0.0 -0.629
-0.903 1.459 -0.108
-0.887 1.329 -0.705
0.773 1.459 -0.275
0.639 1.329 -0.857
1.907 0.0 0.656
1.354 1.335 0.656
1.354 0.412 1.925
1.354 -1.08 1.44
0.019 1.335 1.99
0.019 -0.0 2.543
0.019 -1.335 1.99
0.019 -1.888 0.656
0.019 1.888 0.656
-1.316 0.412 1.925
-1.316 -1.08 1.44
0.648 0.411 -2.001
-0.887 0.411 -2.001
-0.887 -1.075 -1.519
1.021 -0.6645 -0.895
1.02325 -0.2295 -1.181
0.83225 -0.56175 -1.162
0.8345 -0.12675 -1.448
0.6435 -0.459 -1.429
1.0255 0.2055 -1.467
0.93 0.039375 -1.4575
1.024375 -0.012 -1.324
0.928875 -0.178125 -1.3145
1.021 0.6645 -0.895
1.21425 0.10275 -1.2
0.83225 0.76725 -1.162
-0.1195 -0.332 -1.76
0.64575 -0.024 -1.715
-0.12175 -0.767 -1.474

CELLS 78 312
3 0 1 2
3 1 3 4
3 4 3 5
3 3 6 5
3 5 6 7
3 6 8 7
3 7 8 9
3 8 10 9
3 9 10 11
3 10 0 11
3 12 13 14
3 12 14 15
3 14 13 16
3 14 16 17
3 15 14 17
3 15 17 18
3 15 18 19
3 13 20 16
3 17 16 21
3 17 21 22
3 18 17 22
3 19 18 22
3 19 22 3
3 19 3 1
3 19 1 15
3 15 1 12
3 12 1 0
3 12 0 13
3 13 0 10
3 13 10 20
3 20 10 8
3 20 8 21
3 20 21 16
3 21 8 6
3 21 6 22
3 22 6 3
3 23 24 11
3 25 4 5
3 25 5 7
3 25 7 24
3 24 7 9
3 24 9 11
3 4 26 1
3 1 26 2
3 27 26 28
3 29 28 30
3 26 27 2
3 30 28 4
3 28 26 4
3 31 32 23
3 32 29 23
3 31 33 32
3 33 34 32
3 33 27 34
3 32 34 29
3 29 34 28
3 28 34 27
3 27 33 2
3 2 35 0
3 0 35 11
3 2 36 35
3 36 37 35
3 36 31 37
3 35 37 11
3 11 37 23
3 37 31 23
3 31 36 33
3 33 36 2
3 23 38 24
3 38 25 24
3 23 39 38
3 39 40 38
3 39 30 40
3 38 40 25
3 25 40 4
3 4 40 30
3 30 39 29
3 29 39 23

CELL_TYPES 78
5
5
5
5
5
5
5
5
5
5
5
5
5
5
5
5
5
5
5
5
5
5
5
5
5
5
5
5
5
5
5
5
5
5
5
5
5
5
5
5
5
5
5
5
5
5
5
5
5
5
5
5
5
5
5
5
5
5
5
5
5
5
5
5
5
5
5
5
5
5
5
5
5
5
5
5
5
5

CELL_DATA 78
SCALARS cell_data_0 double
LOOKUP_TABLE default
3.79878799306e-06
1.1386753468e-06
1.75808226584e-06
1.30920545399e-06
2.67204042169e-07
2.359635402e-07
1.17033312766e-06
4.7921089628e-07
1.29258318002e-07
2.689440404e-06
9.81320060037e-08
9.01665376512e-07
9.84087949974e-07
1.06717589605e-07
4.08173836298e-07
5.11428896949e-07
4.17190191535e-07
1.87074493983e-09
1.00406238963e-06
5.60632537032e-07
3.20127377742e-07
2.4547614736e-07
9.18694021584e-08
6.28553728026e-07
6.12868138441e-07
2.09871125925e-06
4.01445192143e-07
6.53787105777e-07
8.179245185e-07
1.5399673832e-08
1.47409989107e-06
1.18763138692e-06
1.71268188071e-07
5.09204073176e-06
6.50059724213e-07
2.40748846999e-06
6.65021341764e-06
2.1772763298e-06
1.82501614844e-06
1.08000148843e-05
3.18556009346e-06
1.89431164983e-05
1.60766311701e-08
1.01889198996e-05
9.98966002038e-06
3.5470852136e-05
3.93058176888e-06
1.64711238777e-06
2.70147326735e-06
2.18475985202e-06
1.95884402088e-06
8.79938422295e-06
2.0056422194e-05
4.91939191544e-06
1.42861024628e-05
2.52699581416e-07
9.37835442745e-06
1.32358342774e-05
9.13358265184e-06
2.7605151951e-07
1.82889382306e-06
1.17476489094e-05
2.42642227811e-05
2.28855995008e-06
2.09387012827e-06
5.92874010593e-06
1.47463479151e-05
1.82103050775e-05
5.07860561669e-07
1.19876989342e-06
5.97163047995e-06
1.20665058145e-05
2.39582639788e-05
4.60591245809e-06
7.63257834871e-06
7.74351116476e-06
5.80681671237e-06
1.11488597959e-05

