# vtk DataFile Version 3.0
File Name: Molecule/methanol/methanol_0.5-1.vtk
ASCII
DATASET UNSTRUCTURED_GRID
FIELD FieldData 1
TIME 1 1 double
0.0
POINTS 29 double
1.611 0.0 -0.359
0.773 -1.459 -0.275
1.403 0.0 -0.933
-0.903 -1.459 -0.108
0.639 -1.329 -0.857
-0.887 -1.329 -0.705
-1.742 0.0 -0.025
-1.651 0.0 -0.629
-0.903 1.459 -0.108
-0.887 1.329 -0.705
0.773 1.459 -0.275
0.639 1.329 -0.857
1.907 0.0 0.656
1.354 1.335 0.656
1.354 0.412 1.925
1.354 -1.08 1.44
0.019 1.335 1.99
0.019 -0.0 2.543
0.019 -1.335 1.99
0.019 -1.888 0.656
0.019 1.888 0.656
-1.316 0.412 1.925
-1.316 -1.08 1.44
0.648 0.411 -2.001
-0.887 -1.075 -1.519
-0.887 0.411 -2.001
1.021 -0.6645 -0.895
1.0255 0.2055 -1.467
0.6435 -0.459 -1.429

CELLS 54 216
3 0 1 2
3 1 3 4
3 4 3 5
3 3 6 5
3 5 6 7
3 6 8 7
3 7 8 9
3 8 10 9
3 9 10 11
3 10 0 11
3 11 0 2
3 12 13 14
3 12 14 15
3 14 13 16
3 14 16 17
3 15 14 17
3 15 17 18
3 15 18 19
3 13 20 16
3 17 16 21
3 17 21 22
3 18 17 22
3 19 18 22
3 19 22 3
3 19 3 1
3 19 1 15
3 15 1 12
3 12 1 0
3 12 0 13
3 13 0 10
3 13 10 20
3 20 10 8
3 20 8 21
3 20 21 16
3 21 8 6
3 21 6 22
3 22 6 3
3 23 24 25
3 23 25 11
3 24 4 5
3 24 5 7
3 24 7 25
3 25 7 9
3 25 9 11
3 4 26 1
3 1 26 2
3 2 27 11
3 11 27 23
3 23 27 28
3 27 26 28
3 27 2 26
3 28 26 4
3 23 28 24
3 28 4 24

CELL_TYPES 54
5
5
5
5
5
5
5
5
5
5
5
5
5
5
5
5
5
5
5
5
5
5
5
5
5
5
5
5
5
5
5
5
5
5
5
5
5
5
5
5
5
5
5
5
5
5
5
5
5
5
5
5
5
5

CELL_DATA 54
SCALARS cell_data_0 double
LOOKUP_TABLE default
5.09142438023e-06
2.69016041605e-06
5.42939155326e-08
6.78383407897e-06
6.40557787927e-06
3.22850019868e-07
7.18852003241e-07
1.52317163461e-06
2.84228171506e-06
4.97264196785e-06
2.39053161604e-05
1.02255101738e-07
1.21859129479e-06
1.23193016189e-06
1.12565870775e-07
2.87199090159e-07
5.33086843699e-07
6.93509976202e-07
2.64139439922e-07
1.18372309987e-06
6.61825946755e-07
5.09062943872e-07
3.14011248347e-07
2.46372382398e-07
4.58849439123e-07
8.82513004998e-07
3.11513896712e-06
8.00366142318e-07
4.97155274806e-07
2.07619620724e-06
2.24360706449e-07
1.97867557578e-06
1.18385073451e-06
2.46365785515e-07
4.37440843195e-06
6.09292595158e-07
1.99130971001e-06
5.52083395974e-06
4.10892071747e-06
1.86890324148e-05
7.13043131119e-06
1.51583585164e-05
1.18127023507e-05
5.70008511405e-06
1.4692604739e-06
1.80166448434e-05
4.55018965379e-05
8.12376415095e-05
0.000115690489546
0.000417379441038
0.000119479137848
7.59645833775e-06
3.77290894849e-05
3.19594956843e-05

