# vtk DataFile Version 3.0
File Name: Molecule/methanol/methanol_2.0-0.vtk
ASCII
DATASET UNSTRUCTURED_GRID
FIELD FieldData 1
TIME 1 1 double
0.0
POINTS 96 double
1.611 0.0 -0.359
1.445 -0.731 -0.342
1.403 0.0 -0.933
1.252 -0.666 -0.918
0.98 -1.317 -0.296
0.828 -1.2 -0.876
0.308 -1.642 -0.229
0.216 -1.496 -0.815
-0.438 -1.642 -0.155
-0.464 -1.496 -0.747
-1.11 -1.317 -0.088
-1.076 -1.2 -0.686
-1.576 -0.731 -0.042
-1.5 -0.666 -0.644
-1.742 0.0 -0.025
-1.651 0.0 -0.629
-1.576 0.731 -0.042
-1.5 0.666 -0.644
-1.11 1.317 -0.088
-1.076 1.2 -0.686
-0.438 1.642 -0.155
-0.464 1.496 -0.747
0.308 1.642 -0.229
0.216 1.496 -0.815
0.98 1.317 -0.296
0.828 1.2 -0.876
1.445 0.731 -0.342
1.252 0.666 -0.918
1.907 0.0 0.656
1.763 0.722 0.656
1.763 0.361 1.281
1.763 -0.361 1.281
1.763 -0.722 0.656
1.763 -0.361 0.03
1.763 0.361 0.03
1.354 1.123 1.377
1.354 0.554 1.87
1.354 -0.19 1.977
1.354 -0.874 1.664
1.354 -1.281 1.032
1.354 -1.281 0.28
1.354 1.335 0.656
0.741 1.571 1.412
0.741 1.087 2.019
0.741 0.388 2.356
0.741 -0.388 2.356
0.741 -1.087 2.019
0.741 -1.571 1.412
0.741 -1.744 0.656
0.741 1.744 0.656
0.019 1.744 1.378
0.019 1.335 1.99
0.019 0.722 2.399
0.019 -0.0 2.543
0.019 -0.722 2.399
0.019 -1.335 1.99
0.019 -1.744 1.378
0.019 -1.888 0.656
0.019 1.888 0.656
-0.703 1.744 0.656
-0.703 1.571 1.412
-0.703 1.087 2.019
-0.703 0.388 2.356
-0.703 -0.388 2.356
-0.703 -1.087 2.019
-0.703 -1.571 1.412
-0.703 -1.744 0.656
-1.316 1.335 0.656
-1.316 1.123 1.377
-1.316 0.554 1.87
-1.316 -0.19 1.977
-1.316 -0.874 1.664
-1.316 -1.281 1.032
-1.725 0.722 0.656
-1.725 0.361 1.281
-1.725 -0.361 1.281
-1.725 -0.722 0.656
-1.868 0.0 0.656
1.21 -0.384 -1.402
0.648 -0.871 -1.742
0.648 -0.189 -2.053
1.21 0.384 -1.402
0.648 0.552 -1.946
0.648 1.118 -1.456
-0.12 -1.149 -1.755
-0.12 -0.544 -2.172
-0.12 0.185 -2.261
-0.12 0.872 -2.0
-0.12 1.359 -1.451
-0.887 -1.276 -1.112
-0.887 -0.871 -1.742
-0.887 -0.189 -2.053
-0.887 0.552 -1.946
-0.887 1.118 -1.456
-1.449 -0.384 -1.402
-1.449 0.384 -1.402

CELLS 188 752
3 0 1 2
3 2 1 3
3 1 4 3
3 3 4 5
3 4 6 5
3 5 6 7
3 6 8 7
3 7 8 9
3 8 10 9
3 9 10 11
3 10 12 11
3 11 12 13
3 12 14 13
3 13 14 15
3 14 16 15
3 15 16 17
3 16 18 17
3 17 18 19
3 18 20 19
3 19 20 21
3 20 22 21
3 21 22 23
3 22 24 23
3 23 24 25
3 24 26 25
3 25 26 27
3 26 0 27
3 27 0 2
3 28 29 30
3 28 30 31
3 28 31 32
3 28 32 33
3 28 33 34
3 28 34 29
3 30 29 35
3 30 35 36
3 30 36 37
3 31 30 37
3 31 37 38
3 31 38 39
3 32 31 39
3 32 39 40
3 33 32 40
3 29 41 35
3 35 41 42
3 35 42 43
3 36 35 43
3 36 43 44
3 37 36 44
3 37 44 45
3 38 37 45
3 38 45 46
3 38 46 47
3 39 38 47
3 39 47 48
3 40 39 48
3 41 49 42
3 42 49 50
3 42 50 51
3 43 42 51
3 43 51 52
3 44 43 52
3 44 52 53
3 45 44 53
3 45 53 54
3 46 45 54
3 46 54 55
3 47 46 55
3 47 55 56
3 48 47 56
3 48 56 57
3 49 58 50
3 50 58 59
3 50 59 60
3 51 50 60
3 51 60 61
3 52 51 61
3 52 61 62
3 53 52 62
3 53 62 63
3 54 53 63
3 54 63 64
3 55 54 64
3 55 64 65
3 56 55 65
3 56 65 66
3 57 56 66
3 60 59 67
3 60 67 68
3 61 60 68
3 61 68 69
3 62 61 69
3 62 69 70
3 63 62 70
3 63 70 71
3 64 63 71
3 65 64 71
3 65 71 72
3 66 65 72
3 68 67 73
3 68 73 74
3 69 68 74
3 70 69 74
3 70 74 75
3 71 70 75
3 72 71 75
3 72 75 76
3 74 73 77
3 75 74 77
3 76 75 77
3 76 77 14
3 76 14 12
3 76 12 10
3 76 10 72
3 72 10 66
3 66 10 8
3 66 8 57
3 57 8 6
3 57 6 48
3 48 6 4
3 48 4 40
3 40 4 1
3 40 1 33
3 33 1 0
3 33 0 34
3 34 0 26
3 34 26 29
3 29 26 41
3 41 26 24
3 41 24 49
3 49 24 22
3 49 22 58
3 58 22 20
3 58 20 59
3 59 20 18
3 59 18 67
3 67 18 16
3 67 16 73
3 73 16 14
3 73 14 77
3 78 79 80
3 81 78 80
3 81 80 82
3 81 82 83
3 79 84 85
3 80 79 85
3 80 85 86
3 82 80 86
3 82 86 87
3 83 82 87
3 83 87 88
3 84 89 90
3 85 84 90
3 85 90 91
3 86 85 91
3 86 91 92
3 87 86 92
3 87 92 93
3 88 87 93
3 90 89 94
3 91 90 94
3 91 94 95
3 92 91 95
3 93 92 95
3 93 95 17
3 93 17 19
3 93 19 21
3 93 21 88
3 88 21 23
3 88 23 83
3 83 23 25
3 83 25 27
3 83 27 81
3 81 27 2
3 81 2 78
3 78 2 3
3 78 3 79
3 79 3 5
3 79 5 7
3 79 7 84
3 84 7 9
3 84 9 89
3 89 9 11
3 89 11 13
3 89 13 94
3 94 13 15
3 94 15 95
3 95 15 17

CELL_TYPES 188
5
5
5
5
5
5
5
5
5
5
5
5
5
5
5
5
5
5
5
5
5
5
5
5
5
5
5
5
5
5
5
5
5
5
5
5
5
5
5
5
5
5
5
5
5
5
5
5
5
5
5
5
5
5
5
5
5
5
5
5
5
5
5
5
5
5
5
5
5
5
5
5
5
5
5
5
5
5
5
5
5
5
5
5
5
5
5
5
5
5
5
5
5
5
5
5
5
5
5
5
5
5
5
5
5
5
5
5
5
5
5
5
5
5
5
5
5
5
5
5
5
5
5
5
5
5
5
5
5
5
5
5
5
5
5
5
5
5
5
5
5
5
5
5
5
5
5
5
5
5
5
5
5
5
5
5
5
5
5
5
5
5
5
5
5
5
5
5
5
5
5
5
5
5
5
5
5
5
5
5
5
5
5
5
5
5
5
5

CELL_DATA 188
SCALARS cell_data_0 double
LOOKUP_TABLE default
4.3130448952e-06
7.18330451412e-07
7.72058723332e-08
5.07870180471e-08
6.07999646569e-08
1.23038940143e-07
4.79486074126e-08
2.71225720954e-07
2.67294142798e-07
3.12728028249e-07
4.73911346635e-07
7.52487118542e-08
3.13896095538e-08
6.52095492085e-08
4.01164300581e-07
9.36192648707e-08
6.63677730558e-08
1.15718251612e-07
3.51169722306e-07
1.05072280571e-07
8.77265244685e-08
2.04313219823e-07
8.91839354133e-08
2.53719936295e-07
1.41428859244e-08
7.82819615756e-08
2.01711375089e-06
1.88791087207e-06
4.4434282415e-08
1.65059908212e-08
7.29158081194e-08
9.23482331901e-08
2.28850614967e-07
4.92726763779e-09
3.82286909154e-08
2.11445484621e-08
1.56174704993e-08
1.11356369066e-08
6.98608868081e-08
1.78830242749e-08
1.19719587934e-07
4.65353368394e-08
3.05505115111e-07
1.75784720497e-09
3.86486022838e-10
8.80362894191e-09
8.87637551525e-09
1.41550534502e-08
2.03308036056e-08
2.45680911748e-09
1.61204937176e-08
1.73311736005e-08
6.80486118139e-10
3.28457151455e-08
1.77008576486e-08
1.3445503924e-07
4.88828699764e-08
6.36439585586e-09
2.6541799725e-08
7.7025402915e-09
1.27500151455e-08
9.34651056782e-09
2.65949526635e-09
2.38443311966e-09
5.92112360785e-09
9.61131717656e-09
7.43683189523e-09
1.17378063532e-09
1.60493458724e-08
1.42312742327e-09
2.58005218625e-08
3.13415824542e-08
1.81317002509e-09
1.32623308454e-08
1.95133258604e-08
4.69858620468e-09
1.32484323713e-08
1.44585385058e-08
6.30139002312e-09
4.83822189508e-09
6.93943279512e-09
7.2921790703e-09
1.27731955693e-08
1.14131691471e-08
2.16159631413e-08
1.32737180872e-08
8.11992560527e-09
2.95606214296e-08
1.25896597305e-08
1.05807326604e-08
1.31976542775e-08
4.40649853169e-09
2.43413582947e-09
1.78718400849e-08
8.08673338987e-09
1.63273384226e-08
9.31458084671e-09
2.02451652818e-10
2.25157874436e-09
4.44810604239e-08
1.63445862766e-08
2.98664599792e-09
5.32322372564e-09
2.28656177726e-08
5.15782598762e-09
1.2501835005e-09
3.40720158082e-08
4.26531190457e-08
7.43491818529e-09
4.35627114255e-08
2.05370744928e-08
1.70233018097e-07
1.88478265953e-07
5.83786872015e-08
1.67880887552e-08
2.22556440428e-07
5.3280115754e-08
1.71720033015e-07
5.39852356901e-08
1.17577753555e-07
1.67037973478e-08
5.53895046336e-07
3.76070260212e-07
1.34561063291e-06
1.62384472361e-07
5.35342698024e-07
1.24944467741e-07
9.13218376423e-08
1.61801291769e-08
1.02392041831e-07
1.20999230594e-07
6.39042194002e-08
1.79050366215e-07
4.15855642317e-08
1.96437583614e-07
9.25341031504e-09
2.0434782166e-07
4.2075102525e-09
2.17549347982e-07
3.13097316303e-08
4.72978661478e-06
4.78156626531e-05
1.0937765611e-05
2.82906821177e-06
7.77231305648e-08
8.230755635e-07
8.16082071564e-07
9.02210406968e-07
6.1155735539e-07
5.92934258724e-07
2.35975563528e-07
1.62837513809e-07
1.11595028961e-07
2.74241688634e-07
1.02801109461e-07
5.15869717332e-09
4.40203354398e-07
4.57587704796e-07
9.75678338554e-07
1.61399593752e-07
4.77040503795e-07
6.83144793429e-07
3.29589132747e-07
8.01001184374e-07
1.06981915403e-06
3.84255189956e-07
5.13302503139e-07
2.19034765369e-07
3.41332976165e-07
2.42643603128e-07
7.08649477661e-08
2.17784459576e-06
4.38995780654e-06
1.18659163344e-06
2.15835594325e-05
7.85787425336e-07
3.50697010562e-06
5.62457601713e-06
6.2732105372e-07
8.05993951755e-07
5.35297491858e-07
4.65468958383e-07
7.80009468609e-07
3.48755178898e-07
1.68897731518e-06
3.71748452195e-07
3.05068970969e-09
2.60829152986e-07

