# vtk DataFile Version 3.0
File Name: Molecule/methanol/methanol_1.0-1.vtk
ASCII
DATASET UNSTRUCTURED_GRID
FIELD FieldData 1
TIME 1 1 double
0.0
POINTS 48 double
1.611 0.0 -0.359
1.12 -1.191 -0.31
1.403 0.0 -0.933
0.956 -1.085 -0.888
-0.065 -1.684 -0.192
-0.124 -1.534 -0.781
-1.251 -1.191 -0.074
-1.204 -1.085 -0.673
-1.742 0.0 -0.025
-1.651 0.0 -0.629
-1.251 1.191 -0.074
-1.204 1.085 -0.673
-0.065 1.684 -0.192
-0.124 1.534 -0.781
1.12 1.191 -0.31
0.956 1.085 -0.888
1.907 0.0 0.656
1.546 1.109 0.656
1.546 0.555 1.616
1.546 -0.555 1.616
1.546 -1.109 0.656
0.602 1.452 1.711
0.602 0.555 2.363
0.602 -0.555 2.363
0.602 -1.452 1.711
0.602 -1.795 0.656
0.602 1.795 0.656
-0.564 1.452 1.711
-0.564 0.555 2.363
-0.564 -0.555 2.363
-0.564 -1.452 1.711
-0.564 -1.795 0.656
-0.564 1.795 0.656
-1.508 1.109 0.656
-1.508 0.555 1.616
-1.508 -0.555 1.616
-1.508 -1.109 0.656
-1.868 -0.0 0.656
0.966 -0.543 -1.677
-0.12 -0.768 -2.067
-0.12 0.267 -2.249
0.966 0.543 -1.677
-0.12 1.176 -1.724
-1.205 -0.543 -1.677
-1.205 0.543 -1.677
0.966 0.0 -1.677
1.1845 0.2715 -1.305
1.1845 -0.2715 -1.305

CELLS 92 368
3 0 1 2
3 2 1 3
3 1 4 3
3 3 4 5
3 4 6 5
3 5 6 7
3 6 8 7
3 7 8 9
3 8 10 9
3 9 10 11
3 10 12 11
3 11 12 13
3 12 14 13
3 13 14 15
3 14 0 15
3 15 0 2
3 16 17 18
3 16 18 19
3 16 19 20
3 18 17 21
3 18 21 22
3 18 22 23
3 19 18 23
3 19 23 24
3 20 19 24
3 20 24 25
3 17 26 21
3 21 26 27
3 21 27 28
3 22 21 28
3 22 28 29
3 23 22 29
3 24 23 29
3 24 29 30
3 24 30 31
3 25 24 31
3 26 32 27
3 27 32 33
3 27 33 34
3 28 27 34
3 28 34 35
3 29 28 35
3 30 29 35
3 30 35 36
3 31 30 36
3 34 33 37
3 35 34 37
3 36 35 37
3 36 37 8
3 36 8 6
3 36 6 31
3 31 6 4
3 31 4 25
3 25 4 1
3 25 1 20
3 20 1 0
3 20 0 16
3 16 0 17
3 17 0 14
3 17 14 26
3 26 14 12
3 26 12 32
3 32 12 10
3 32 10 33
3 33 10 8
3 33 8 37
3 38 39 40
3 41 40 42
3 40 39 43
3 40 43 44
3 42 40 44
3 42 44 11
3 42 11 13
3 42 13 15
3 42 15 41
3 38 3 39
3 39 3 5
3 39 5 43
3 43 5 7
3 43 7 9
3 43 9 44
3 44 9 11
3 41 45 40
3 45 38 40
3 2 46 15
3 15 46 41
3 41 46 45
3 46 47 45
3 46 2 47
3 45 47 38
3 38 47 3
3 47 2 3

CELL_TYPES 92
5
5
5
5
5
5
5
5
5
5
5
5
5
5
5
5
5
5
5
5
5
5
5
5
5
5
5
5
5
5
5
5
5
5
5
5
5
5
5
5
5
5
5
5
5
5
5
5
5
5
5
5
5
5
5
5
5
5
5
5
5
5
5
5
5
5
5
5
5
5
5
5
5
5
5
5
5
5
5
5
5
5
5
5
5
5
5
5
5
5
5
5

CELL_DATA 92
SCALARS cell_data_0 double
LOOKUP_TABLE default
6.81047566578e-06
6.78321810111e-06
1.25849145846e-07
2.92941598431e-07
4.85521791471e-08
1.66309776686e-06
6.18643547311e-07
2.62572795061e-07
4.09300492192e-07
3.86038733598e-07
3.6828611301e-07
2.29756071756e-07
2.31867969343e-07
9.30768705088e-07
2.89956063602e-06
1.04174949118e-05
1.97359700175e-08
4.89323036716e-08
9.23471810932e-08
3.35985260303e-08
1.50459622439e-07
1.12302718055e-07
1.97431313499e-07
7.85200632632e-08
1.8215767171e-08
3.20291656398e-07
1.7612370784e-08
2.29182827449e-08
4.34027027816e-08
3.57881977069e-08
3.90704347374e-08
9.51904939657e-09
3.95998123266e-08
9.49583967966e-08
1.3713696994e-07
2.4074512449e-08
4.01705149603e-08
8.65084994079e-08
9.74658469832e-08
9.28110526989e-08
1.40413085447e-07
2.81718336542e-08
1.00677848597e-07
9.13473650712e-08
3.93346282205e-08
1.01223344133e-07
2.60848205539e-08
8.66722740361e-08
1.32675662387e-07
5.23716712015e-07
9.79748396005e-08
7.27540885874e-07
1.14303179356e-07
2.07587985923e-07
4.66800438445e-07
1.78013385314e-06
1.8238525343e-07
1.38613910076e-07
7.07212744415e-08
2.94317998497e-08
2.86491297166e-07
4.21843641244e-08
6.39617424008e-07
6.5981215082e-09
6.6203511728e-07
1.56865728496e-07
7.06171988332e-06
5.99506516725e-06
2.91348462029e-06
8.39762758781e-07
2.5088607729e-06
5.08336633751e-06
1.97970316135e-06
1.44793045434e-07
8.68406421927e-06
9.71392965986e-06
4.66082638499e-07
7.41724969041e-06
3.11612269045e-06
1.2148228189e-06
6.50535883841e-07
1.37495651286e-07
3.59662561934e-06
8.6498914307e-06
1.36937120032e-07
8.27736513574e-06
4.95319944371e-06
3.4182600743e-05
1.88439036771e-05
4.8114967872e-06
1.01108065015e-05
3.90597696394e-06

