# vtk DataFile Version 3.0
File Name: Molecule/methanol/methanol_0.5-3.vtk
ASCII
DATASET UNSTRUCTURED_GRID
FIELD FieldData 1
TIME 1 1 double
0.0
POINTS 35 double
1.611 0.0 -0.359
0.773 -1.459 -0.275
1.403 0.0 -0.933
-0.903 -1.459 -0.108
0.639 -1.329 -0.857
-0.887 -1.329 -0.705
-1.742 0.0 -0.025
-1.651 0.0 -0.629
-0.903 1.459 -0.108
-0.887 1.329 -0.705
0.773 1.459 -0.275
0.639 1.329 -0.857
1.907 0.0 0.656
1.354 1.335 0.656
1.354 0.412 1.925
1.354 -1.08 1.44
0.019 1.335 1.99
0.019 -0.0 2.543
0.019 -1.335 1.99
0.019 -1.888 0.656
0.019 1.888 0.656
-1.316 0.412 1.925
-1.316 -1.08 1.44
0.648 0.411 -2.001
-0.887 -1.075 -1.519
-0.887 0.411 -2.001
1.021 -0.6645 -0.895
1.0255 0.2055 -1.467
0.6435 -0.459 -1.429
0.8345 -0.12675 -1.448
1.02325 -0.2295 -1.181
0.83225 -0.56175 -1.162
0.93 0.039375 -1.4575
1.024375 -0.012 -1.324
0.928875 -0.178125 -1.3145

CELLS 66 264
3 0 1 2
3 1 3 4
3 4 3 5
3 3 6 5
3 5 6 7
3 6 8 7
3 7 8 9
3 8 10 9
3 9 10 11
3 10 0 11
3 11 0 2
3 12 13 14
3 12 14 15
3 14 13 16
3 14 16 17
3 15 14 17
3 15 17 18
3 15 18 19
3 13 20 16
3 17 16 21
3 17 21 22
3 18 17 22
3 19 18 22
3 19 22 3
3 19 3 1
3 19 1 15
3 15 1 12
3 12 1 0
3 12 0 13
3 13 0 10
3 13 10 20
3 20 10 8
3 20 8 21
3 20 21 16
3 21 8 6
3 21 6 22
3 22 6 3
3 23 24 25
3 23 25 11
3 24 4 5
3 24 5 7
3 24 7 25
3 25 7 9
3 25 9 11
3 4 26 1
3 1 26 2
3 2 27 11
3 11 27 23
3 23 28 24
3 28 4 24
3 23 29 28
3 30 26 31
3 29 31 28
3 26 30 2
3 28 31 4
3 31 26 4
3 27 32 23
3 32 29 23
3 27 33 32
3 33 34 32
3 33 30 34
3 32 34 29
3 29 34 31
3 31 34 30
3 30 33 2
3 2 33 27

CELL_TYPES 66
5
5
5
5
5
5
5
5
5
5
5
5
5
5
5
5
5
5
5
5
5
5
5
5
5
5
5
5
5
5
5
5
5
5
5
5
5
5
5
5
5
5
5
5
5
5
5
5
5
5
5
5
5
5
5
5
5
5
5
5
5
5
5
5
5
5

CELL_DATA 66
SCALARS cell_data_0 double
LOOKUP_TABLE default
1.25423013048e-05
3.83295219687e-07
3.02960757642e-06
3.47448381696e-06
4.22276072903e-06
8.70631717568e-07
7.13426813387e-07
8.15661301233e-08
5.45232531435e-07
3.3026536587e-06
1.16747589137e-05
2.03377771224e-07
1.0214371139e-06
9.96318815157e-07
1.92321226145e-07
4.45299934555e-07
5.81217426402e-07
4.70582710771e-07
4.25388972497e-08
1.07027888915e-06
6.91330115045e-07
3.42368570296e-07
3.02874347393e-07
9.5612039941e-08
5.03873813573e-07
6.81473044089e-07
2.35456628134e-06
1.08249630317e-06
1.22399238103e-07
7.65503105069e-07
9.13600474234e-08
1.59142968216e-06
1.18675933403e-06
2.03309992927e-07
4.5414140482e-06
6.32161804452e-07
1.76887045969e-06
1.77318635856e-05
3.29035080585e-06
8.88117054952e-06
5.3963707698e-06
1.19597352136e-05
1.79221261961e-06
1.35113202581e-05
5.84882442435e-07
6.61750555061e-06
8.13204794288e-05
2.9425813871e-06
4.19403456012e-05
1.78280970083e-05
4.41783954055e-06
1.04230094339e-05
2.80497053526e-05
5.20022906695e-06
4.21187199737e-06
1.64113796083e-06
2.59517448729e-06
3.34030425527e-06
3.97628313594e-06
2.48482330515e-05
7.23773271373e-06
1.4380414358e-05
1.21027699489e-05
6.17729227239e-06
1.18472826171e-06
3.42091967594e-05

