# vtk DataFile Version 3.0
File Name: Molecule/methanol/methanol_1.0-4.vtk
ASCII
DATASET UNSTRUCTURED_GRID
FIELD FieldData 1
TIME 1 1 double
0.0
POINTS 60 double
1.611 0.0 -0.359
1.12 -1.191 -0.31
1.403 0.0 -0.933
-0.065 -1.684 -0.192
0.956 -1.085 -0.888
-0.124 -1.534 -0.781
-1.251 -1.191 -0.074
-1.204 -1.085 -0.673
-1.742 0.0 -0.025
-1.651 0.0 -0.629
-1.251 1.191 -0.074
-1.204 1.085 -0.673
-0.065 1.684 -0.192
-0.124 1.534 -0.781
1.12 1.191 -0.31
0.956 1.085 -0.888
1.907 0.0 0.656
1.546 1.109 0.656
1.546 0.555 1.616
1.546 -0.555 1.616
1.546 -1.109 0.656
0.602 1.452 1.711
0.602 0.555 2.363
0.602 -0.555 2.363
0.602 -1.452 1.711
0.602 -1.795 0.656
0.602 1.795 0.656
-0.564 1.452 1.711
-0.564 0.555 2.363
-0.564 -0.555 2.363
-0.564 -1.452 1.711
-0.564 -1.795 0.656
-0.564 1.795 0.656
-1.508 1.109 0.656
-1.508 0.555 1.616
-1.508 -0.555 1.616
-1.508 -1.109 0.656
-1.868 -0.0 0.656
0.966 0.543 -1.677
-0.12 0.267 -2.249
-0.12 1.176 -1.724
-0.12 -0.768 -2.067
-1.205 -0.543 -1.677
-1.205 0.543 -1.677
0.966 -0.543 -1.677
1.1845 0.2715 -1.305
1.07525 0.13575 -1.491
0.966 0.0 -1.677
1.1845 0.0 -1.305
1.07525 -0.13575 -1.491
1.1845 -0.2715 -1.305
1.1795 -0.5425 -0.9105
1.07025 -0.67825 -1.0965
1.29375 -0.13575 -1.119
1.1795 0.5425 -0.9105
0.423 -0.138 -1.963
0.423 0.1335 -1.963
0.966 -0.2715 -1.677
1.29375 0.13575 -1.119
1.07025 0.67825 -1.0965

CELLS 116 464
3 0 1 2
3 1 3 4
3 4 3 5
3 3 6 5
3 5 6 7
3 6 8 7
3 7 8 9
3 8 10 9
3 9 10 11
3 10 12 11
3 11 12 13
3 12 14 13
3 13 14 15
3 14 0 15
3 16 17 18
3 16 18 19
3 16 19 20
3 18 17 21
3 18 21 22
3 18 22 23
3 19 18 23
3 19 23 24
3 20 19 24
3 20 24 25
3 17 26 21
3 21 26 27
3 21 27 28
3 22 21 28
3 22 28 29
3 23 22 29
3 24 23 29
3 24 29 30
3 24 30 31
3 25 24 31
3 26 32 27
3 27 32 33
3 27 33 34
3 28 27 34
3 28 34 35
3 29 28 35
3 30 29 35
3 30 35 36
3 31 30 36
3 34 33 37
3 35 34 37
3 36 35 37
3 36 37 8
3 36 8 6
3 36 6 31
3 31 6 3
3 31 3 25
3 25 3 1
3 25 1 20
3 20 1 0
3 20 0 16
3 16 0 17
3 17 0 14
3 17 14 26
3 26 14 12
3 26 12 32
3 32 12 10
3 32 10 33
3 33 10 8
3 33 8 37
3 38 39 40
3 39 41 42
3 39 42 43
3 40 39 43
3 40 43 11
3 40 11 13
3 40 13 15
3 40 15 38
3 44 4 41
3 41 4 5
3 41 5 42
3 42 5 7
3 42 7 9
3 42 9 43
3 43 9 11
3 45 46 38
3 38 46 47
3 45 48 46
3 48 49 46
3 48 50 49
3 46 49 47
3 49 50 44
3 4 51 1
3 1 51 2
3 50 52 44
3 44 52 4
3 50 53 52
3 53 51 52
3 53 2 51
3 52 51 4
3 2 53 48
3 48 53 50
3 2 54 0
3 0 54 15
3 39 55 41
3 41 55 44
3 47 56 38
3 38 56 39
3 47 57 56
3 57 55 56
3 57 44 55
3 56 55 39
3 2 58 54
3 58 59 54
3 58 45 59
3 54 59 15
3 15 59 38
3 59 45 38
3 45 58 48
3 48 58 2
3 44 57 49
3 49 57 47

CELL_TYPES 116
5
5
5
5
5
5
5
5
5
5
5
5
5
5
5
5
5
5
5
5
5
5
5
5
5
5
5
5
5
5
5
5
5
5
5
5
5
5
5
5
5
5
5
5
5
5
5
5
5
5
5
5
5
5
5
5
5
5
5
5
5
5
5
5
5
5
5
5
5
5
5
5
5
5
5
5
5
5
5
5
5
5
5
5
5
5
5
5
5
5
5
5
5
5
5
5
5
5
5
5
5
5
5
5
5
5
5
5
5
5
5
5
5
5
5
5

CELL_DATA 116
SCALARS cell_data_0 double
LOOKUP_TABLE default
2.36965064553e-06
2.35523456323e-07
3.29832101219e-07
4.77860826057e-07
1.59070289067e-06
7.96952119458e-07
4.43236003722e-07
3.3991847696e-07
2.32124381068e-08
1.65755452489e-07
1.23988066768e-07
1.02694541376e-07
1.07992425227e-06
2.77579305648e-06
4.14463369091e-08
3.91623879787e-08
6.85584154458e-08
3.50812623808e-08
1.4432051836e-07
1.08332038394e-07
1.89414428826e-07
9.1174621023e-08
8.93778155885e-09
2.7405745237e-07
5.29044707888e-08
7.83692684838e-09
5.59949418761e-08
4.34923458064e-08
3.34841627369e-08
4.83937421113e-09
3.14156708017e-08
1.00036821688e-07
1.11276565154e-07
4.11696811485e-08
3.01550847923e-08
8.67759383415e-08
9.74550164394e-08
8.55013646853e-08
1.38525209471e-07
2.00594311817e-08
9.62874241624e-08
9.76817397679e-08
3.98511736498e-08
1.09390756006e-07
2.60080701364e-08
8.56685210852e-08
1.66927486093e-07
5.21738665253e-07
4.82862849155e-08
6.19220909719e-07
7.45032005424e-08
1.98461223007e-07
3.48389602891e-07
1.39233519248e-06
2.43522133383e-07
7.33889034458e-09
2.0280365076e-07
6.33838974099e-08
2.83910565395e-07
4.7560061342e-08
5.68422998561e-07
2.28414495692e-08
5.61597204149e-07
1.50224506107e-07
6.28571830558e-06
1.82837892937e-06
2.87446632394e-06
1.3414288377e-06
2.71202592935e-06
9.80066718006e-07
3.53278939862e-08
8.0004109931e-06
8.19131256066e-06
8.20065552718e-07
5.06507914216e-06
2.56895472406e-06
1.13088070109e-06
8.06069622613e-07
2.93693655069e-07
2.72157555722e-06
3.40447631238e-06
3.31964448707e-06
7.76627183381e-06
4.27129179973e-06
2.28313751008e-06
1.96483871896e-06
5.03802536867e-07
6.51100593231e-06
1.55159482566e-06
4.73673041568e-08
1.27750905125e-06
4.11767120302e-06
2.6694926229e-06
5.81603373336e-07
4.00588678828e-06
2.03183744554e-06
2.01097929024e-06
9.94490293628e-07
8.22808242088e-08
4.09309951036e-06
5.58227393929e-06
2.60339864811e-06
2.37052721757e-06
3.89852617597e-06
5.65478380198e-07
1.00610894542e-07
8.4439993486e-07
2.84488982409e-06
2.79215993617e-06
1.45113438406e-06
1.13337325709e-06
1.91588668843e-06
1.51815757502e-06
2.9030104277e-06
2.72107891478e-06
1.8089182502e-06

