# vtk DataFile Version 3.0
File Name: Molecule/methanol/methanol_1.0-3.vtk
ASCII
DATASET UNSTRUCTURED_GRID
FIELD FieldData 1
TIME 1 1 double
0.0
POINTS 54 double
1.611 0.0 -0.359
1.12 -1.191 -0.31
1.403 0.0 -0.933
-0.065 -1.684 -0.192
0.956 -1.085 -0.888
-0.124 -1.534 -0.781
-1.251 -1.191 -0.074
-1.204 -1.085 -0.673
-1.742 0.0 -0.025
-1.651 0.0 -0.629
-1.251 1.191 -0.074
-1.204 1.085 -0.673
-0.065 1.684 -0.192
-0.124 1.534 -0.781
1.12 1.191 -0.31
0.956 1.085 -0.888
1.907 0.0 0.656
1.546 1.109 0.656
1.546 0.555 1.616
1.546 -0.555 1.616
1.546 -1.109 0.656
0.602 1.452 1.711
0.602 0.555 2.363
0.602 -0.555 2.363
0.602 -1.452 1.711
0.602 -1.795 0.656
0.602 1.795 0.656
-0.564 1.452 1.711
-0.564 0.555 2.363
-0.564 -0.555 2.363
-0.564 -1.452 1.711
-0.564 -1.795 0.656
-0.564 1.795 0.656
-1.508 1.109 0.656
-1.508 0.555 1.616
-1.508 -0.555 1.616
-1.508 -1.109 0.656
-1.868 -0.0 0.656
0.966 -0.543 -1.677
-0.12 -0.768 -2.067
-0.12 0.267 -2.249
0.966 0.543 -1.677
-0.12 1.176 -1.724
-1.205 -0.543 -1.677
-1.205 0.543 -1.677
0.966 0.0 -1.677
1.1845 0.2715 -1.305
1.07525 0.13575 -1.491
1.1845 0.0 -1.305
1.07525 -0.13575 -1.491
1.1845 -0.2715 -1.305
1.1795 -0.5425 -0.9105
1.07025 -0.67825 -1.0965
1.29375 -0.13575 -1.119

CELLS 104 416
3 0 1 2
3 1 3 4
3 4 3 5
3 3 6 5
3 5 6 7
3 6 8 7
3 7 8 9
3 8 10 9
3 9 10 11
3 10 12 11
3 11 12 13
3 12 14 13
3 13 14 15
3 14 0 15
3 15 0 2
3 16 17 18
3 16 18 19
3 16 19 20
3 18 17 21
3 18 21 22
3 18 22 23
3 19 18 23
3 19 23 24
3 20 19 24
3 20 24 25
3 17 26 21
3 21 26 27
3 21 27 28
3 22 21 28
3 22 28 29
3 23 22 29
3 24 23 29
3 24 29 30
3 24 30 31
3 25 24 31
3 26 32 27
3 27 32 33
3 27 33 34
3 28 27 34
3 28 34 35
3 29 28 35
3 30 29 35
3 30 35 36
3 31 30 36
3 34 33 37
3 35 34 37
3 36 35 37
3 36 37 8
3 36 8 6
3 36 6 31
3 31 6 3
3 31 3 25
3 25 3 1
3 25 1 20
3 20 1 0
3 20 0 16
3 16 0 17
3 17 0 14
3 17 14 26
3 26 14 12
3 26 12 32
3 32 12 10
3 32 10 33
3 33 10 8
3 33 8 37
3 38 39 40
3 41 40 42
3 40 39 43
3 40 43 44
3 42 40 44
3 42 44 11
3 42 11 13
3 42 13 15
3 42 15 41
3 38 4 39
3 39 4 5
3 39 5 43
3 43 5 7
3 43 7 9
3 43 9 44
3 44 9 11
3 41 45 40
3 45 38 40
3 2 46 15
3 15 46 41
3 46 47 41
3 41 47 45
3 46 48 47
3 48 49 47
3 48 50 49
3 47 49 45
3 2 48 46
3 45 49 38
3 49 50 38
3 4 51 1
3 1 51 2
3 50 52 38
3 38 52 4
3 50 53 52
3 53 51 52
3 53 2 51
3 52 51 4
3 2 53 48
3 48 53 50

CELL_TYPES 104
5
5
5
5
5
5
5
5
5
5
5
5
5
5
5
5
5
5
5
5
5
5
5
5
5
5
5
5
5
5
5
5
5
5
5
5
5
5
5
5
5
5
5
5
5
5
5
5
5
5
5
5
5
5
5
5
5
5
5
5
5
5
5
5
5
5
5
5
5
5
5
5
5
5
5
5
5
5
5
5
5
5
5
5
5
5
5
5
5
5
5
5
5
5
5
5
5
5
5
5
5
5
5
5

CELL_DATA 104
SCALARS cell_data_0 double
LOOKUP_TABLE default
6.91992650597e-06
2.26109206058e-07
3.73952614594e-07
4.7215785625e-07
1.75958572307e-06
7.56895419693e-07
2.24520333915e-07
3.14784391163e-07
3.32439684234e-07
2.52308235552e-07
1.75284083723e-07
1.42045112504e-07
9.86991384922e-07
2.47037969193e-06
8.74538057266e-06
2.0594543272e-08
5.11989793207e-08
8.74312299041e-08
3.32191437485e-08
1.48886975953e-07
1.04114555042e-07
1.89719831295e-07
7.48289492997e-08
4.6844873109e-09
3.32083154649e-07
3.52350756666e-08
1.82120431665e-08
5.4688401129e-08
3.46152548043e-08
3.38050215342e-08
2.45496316476e-09
4.63217677948e-08
1.09151144952e-07
1.20576652383e-07
4.90785158428e-08
3.87318630621e-08
8.52964924119e-08
9.62879846136e-08
9.08072800283e-08
1.40153672324e-07
2.40591713914e-08
9.83577713555e-08
9.75253061639e-08
4.04174717453e-08
1.06112885733e-07
2.63471964509e-08
8.12079788799e-08
1.50939937885e-07
5.76223754024e-07
5.56707659058e-08
6.6070834477e-07
8.66794566759e-08
1.94580838932e-07
4.58684550827e-07
1.70954863965e-06
2.36925773437e-07
6.11166520861e-08
1.06289682904e-07
9.5709710104e-09
2.84979797874e-07
4.53813152818e-08
6.30390726589e-07
5.09646616512e-09
6.3448298199e-07
1.47092164726e-07
6.79957931221e-06
5.917848716e-06
3.2235448555e-06
4.05082922906e-08
2.63872900801e-06
4.51495960493e-06
1.48750758798e-06
9.87573604518e-08
7.86953166862e-06
8.71729137641e-06
7.23624016101e-07
5.30007286326e-06
3.02441824716e-06
9.24625495094e-07
7.4203745603e-07
1.86918768374e-07
9.33247400518e-06
1.54848620049e-05
1.54017882781e-05
2.56711839144e-07
3.8363213807e-06
1.21544557282e-06
1.30389514702e-06
7.46954421166e-06
3.56117615968e-06
1.70293762317e-06
2.39942645659e-06
3.14677661973e-06
3.40854002986e-06
2.63055830531e-07
4.81841195337e-06
1.38728471395e-06
3.10290488958e-07
2.18587987382e-06
5.43074839464e-06
2.05393645171e-06
3.00965278793e-07
5.18512294273e-06
1.19602881632e-06

